 vasp.5.4.1 24Jun15 (build Aug 25 2015 09:43:03) complex revision 0 including -D
 J
 executed on             LinuxIFC date 2016.03.27  14:06:43
 running on    8 total cores
 distrk:  each k-point on    8 cores,    1 groups
 distr:  one band on NCORES_PER_BAND=   4 cores,    2 groups


--------------------------------------------------------------------------------------------------------


 INCAR:
 POTCAR:    PAW_PBE B 06Sep2000                   
 POTCAR:    PAW_PBE N 08Apr2002                   
 POTCAR:    PAW_PBE Mo 08Apr2002                  
 POTCAR:    PAW_PBE Se 06Sep2000                  
 POTCAR:    PAW_PBE B 06Sep2000                   
   VRHFIN =B: s2p1                                                              
   LEXCH  = PE                                                                  
   EATOM  =    71.1703 eV,    5.2309 Ry                                         
                                                                                
   TITEL  = PAW_PBE B 06Sep2000                                                 
   LULTRA =        F    use ultrasoft PP ?                                      
   IUNSCR =        1    unscreen: 0-lin 1-nonlin 2-no                           
   RPACOR =    1.200    partial core radius                                     
   POMASS =   10.811; ZVAL   =    3.000    mass and valenz                      
   RCORE  =    1.700    outmost cutoff radius                                   
   RWIGS  =    1.710; RWIGS  =    0.905    wigner-seitz radius (au A)           
   ENMAX  =  318.614; ENMIN  =  238.960 eV                                      
   ICORE  =        2    local potential                                         
   LCOR   =        T    correct aug charges                                     
   LPAW   =        T    paw PP                                                  
   EAUG   =  535.514                                                            
   DEXC   =    0.000                                                            
   RMAX   =    1.732    core radius for proj-oper                               
   RAUG   =    1.300    factor for augmentation sphere                          
   RDEP   =    1.757    radius for radial grids                                 
   RDEPT  =    1.436    core radius for aug-charge                              
                                                                                
   Atomic configuration                                                         
    4 entries                                                                   
     n  l   j            E        occ.                                          
     1  0  0.50      -180.5896   2.0000                                         
     2  0  0.50        -9.4431   2.0000                                         
     2  1  0.50        -3.6068   1.0000                                         
     3  2  1.50        -4.0817   0.0000                                         
   Description                                                                  
     l       E           TYP  RCUT    TYP  RCUT                                 
     0     -9.4430752     23  1.500                                             
     0      0.8675899     23  1.500                                             
     1     -3.6067955     23  1.700                                             
     1      6.1086146     23  1.700                                             
     2     -4.0817478      7  1.700                                             
  local pseudopotential read in
  partial core-charges read in
  partial kinetic energy density read in
  atomic valenz-charges read in
  non local Contribution for L=           0  read in
    real space projection operators read in
  non local Contribution for L=           0  read in
    real space projection operators read in
  non local Contribution for L=           1  read in
    real space projection operators read in
  non local Contribution for L=           1  read in
    real space projection operators read in
    PAW grid and wavefunctions read in
 
   number of l-projection  operators is LMAX  =           4
   number of lm-projection operators is LMMAX =           8
 
 POTCAR:    PAW_PBE N 08Apr2002                   
   VRHFIN =N: s2p3                                                              
   LEXCH  = PE                                                                  
   EATOM  =   264.5486 eV,   19.4438 Ry                                         
                                                                                
   TITEL  = PAW_PBE N 08Apr2002                                                 
   LULTRA =        F    use ultrasoft PP ?                                      
   IUNSCR =        1    unscreen: 0-lin 1-nonlin 2-no                           
   RPACOR =    1.200    partial core radius                                     
   POMASS =   14.001; ZVAL   =    5.000    mass and valenz                      
   RCORE  =    1.500    outmost cutoff radius                                   
   RWIGS  =    1.400; RWIGS  =    0.741    wigner-seitz radius (au A)           
   ENMAX  =  400.000; ENMIN  =  300.000 eV                                      
   ICORE  =        2    local potential                                         
   LCOR   =        T    correct aug charges                                     
   LPAW   =        T    paw PP                                                  
   EAUG   =  627.112                                                            
   DEXC   =    0.000                                                            
   RMAX   =    1.529    core radius for proj-oper                               
   RAUG   =    1.300    factor for augmentation sphere                          
   RDEP   =    1.514    radius for radial grids                                 
   RDEPT  =    1.338    core radius for aug-charge                              
                                                                                
   Atomic configuration                                                         
    4 entries                                                                   
     n  l   j            E        occ.                                          
     1  0  0.50      -384.7179   2.0000                                         
     2  0  0.50       -18.5828   2.0000                                         
     2  1  0.50        -7.0898   3.0000                                         
     3  2  1.50        -6.8029   0.0000                                         
   Description                                                                  
     l       E           TYP  RCUT    TYP  RCUT                                 
     0    -18.5828119     23  1.200                                             
     0    -13.5018863     23  1.200                                             
     1     -7.0897853     23  1.500                                             
     1      9.5240782     23  1.500                                             
     2     -6.8029130      7  1.500                                             
  local pseudopotential read in
  partial core-charges read in
  partial kinetic energy density read in
  atomic valenz-charges read in
  non local Contribution for L=           0  read in
    real space projection operators read in
  non local Contribution for L=           0  read in
    real space projection operators read in
  non local Contribution for L=           1  read in
    real space projection operators read in
  non local Contribution for L=           1  read in
    real space projection operators read in
    PAW grid and wavefunctions read in
 
   number of l-projection  operators is LMAX  =           4
   number of lm-projection operators is LMMAX =           8
 
 POTCAR:    PAW_PBE Mo 08Apr2002                  
   VRHFIN =Mo: 4p5s4d                                                           
   LEXCH  = PE                                                                  
   EATOM  =   217.5176 eV,   15.9871 Ry                                         
                                                                                
   TITEL  = PAW_PBE Mo 08Apr2002                                                
   LULTRA =        F    use ultrasoft PP ?                                      
   IUNSCR =        1    unscreen: 0-lin 1-nonlin 2-no                           
   RPACOR =    2.200    partial core radius                                     
   POMASS =   95.940; ZVAL   =    6.000    mass and valenz                      
   RCORE  =    2.750    outmost cutoff radius                                   
   RWIGS  =    2.750; RWIGS  =    1.455    wigner-seitz radius (au A)           
   ENMAX  =  224.584; ENMIN  =  168.438 eV                                      
   RCLOC  =    2.111    cutoff for local pot                                    
   LCOR   =        T    correct aug charges                                     
   LPAW   =        T    paw PP                                                  
   EAUG   =  345.278                                                            
   DEXC   =    0.000                                                            
   RMAX   =    2.821    core radius for proj-oper                               
   RAUG   =    1.300    factor for augmentation sphere                          
   RDEP   =    2.815    radius for radial grids                                 
   RDEPT  =    2.211    core radius for aug-charge                              
                                                                                
   Atomic configuration                                                         
   12 entries                                                                   
     n  l   j            E        occ.                                          
     1  0  0.50    -19819.0341   2.0000                                         
     2  0  0.50     -2799.0127   2.0000                                         
     2  1  1.50     -2502.0276   6.0000                                         
     3  0  0.50      -476.4448   2.0000                                         
     3  1  1.50      -379.1496   6.0000                                         
     3  2  2.50      -220.9367  10.0000                                         
     4  0  0.50       -64.3378   2.0000                                         
     4  1  1.50       -38.4773   6.0000                                         
     4  2  2.50        -3.7535   5.0000                                         
     5  0  0.50        -4.0862   1.0000                                         
     5  1  0.50        -2.7701   0.0000                                         
     4  3  2.50        -1.3606   0.0000                                         
   Description                                                                  
     l       E           TYP  RCUT    TYP  RCUT                                 
     2     -3.7534765     23  2.500                                             
     2     -5.1140591     23  2.500                                             
     0     -4.0861560     23  2.600                                             
     0     13.6058260     23  2.600                                             
     1      5.4423304     23  2.750                                             
     1     27.2116520     23  2.750                                             
  local pseudopotential read in
  partial core-charges read in
  partial kinetic energy density read in
  atomic valenz-charges read in
  non local Contribution for L=           2  read in
    real space projection operators read in
  non local Contribution for L=           2  read in
    real space projection operators read in
  non local Contribution for L=           0  read in
    real space projection operators read in
  non local Contribution for L=           0  read in
    real space projection operators read in
  non local Contribution for L=           1  read in
    real space projection operators read in
  non local Contribution for L=           1  read in
    real space projection operators read in
    PAW grid and wavefunctions read in
 
   number of l-projection  operators is LMAX  =           6
   number of lm-projection operators is LMMAX =          18
 
 POTCAR:    PAW_PBE Se 06Sep2000                  
   VRHFIN =Se: s2p4                                                             
   LEXCH  = PE                                                                  
   EATOM  =   257.1286 eV,   18.8984 Ry                                         
                                                                                
   TITEL  = PAW_PBE Se 06Sep2000                                                
   LULTRA =        F    use ultrasoft PP ?                                      
   IUNSCR =        1    unscreen: 0-lin 1-nonlin 2-no                           
   RPACOR =    1.900    partial core radius                                     
   POMASS =   78.960; ZVAL   =    6.000    mass and valenz                      
   RCORE  =    2.100    outmost cutoff radius                                   
   RWIGS  =    2.200; RWIGS  =    1.164    wigner-seitz radius (au A)           
   ENMAX  =  211.555; ENMIN  =  158.666 eV                                      
   ICORE  =        3    local potential                                         
   LCOR   =        T    correct aug charges                                     
   LPAW   =        T    paw PP                                                  
   EAUG   =  446.842                                                            
   DEXC   =    0.000                                                            
   RMAX   =    2.147    core radius for proj-oper                               
   RAUG   =    1.300    factor for augmentation sphere                          
   RDEP   =    2.177    radius for radial grids                                 
   RDEPT  =    1.928    core radius for aug-charge                              
                                                                                
   Atomic configuration                                                         
   10 entries                                                                   
     n  l   j            E        occ.                                          
     1  0  0.50    -12503.4787   2.0000                                         
     2  0  0.50     -1606.9547   2.0000                                         
     2  1  1.50     -1413.3140   6.0000                                         
     3  0  0.50      -213.4885   2.0000                                         
     3  1  1.50      -152.9538   6.0000                                         
     3  2  2.50       -53.1221  10.0000                                         
     4  0  0.50       -17.2865   2.0000                                         
     4  1  0.50        -6.5110   4.0000                                         
     4  2  2.50        -6.8029   0.0000                                         
     4  3  2.50        -6.8029   0.0000                                         
   Description                                                                  
     l       E           TYP  RCUT    TYP  RCUT                                 
     0    -17.2865377     23  2.100                                             
     0    -15.3094411     23  2.100                                             
     1     -6.5110275     23  2.100                                             
     1     -0.0695192     23  2.100                                             
     2     -6.8029130     23  2.100                                             
     3     -1.3605826      7  2.100                                             
  local pseudopotential read in
  partial core-charges read in
  partial kinetic energy density read in
  atomic valenz-charges read in
  non local Contribution for L=           0  read in
    real space projection operators read in
  non local Contribution for L=           0  read in
    real space projection operators read in
  non local Contribution for L=           1  read in
    real space projection operators read in
  non local Contribution for L=           1  read in
    real space projection operators read in
  non local Contribution for L=           2  read in
    real space projection operators read in
    PAW grid and wavefunctions read in
 
   number of l-projection  operators is LMAX  =           5
   number of lm-projection operators is LMMAX =          13
 

 ----------------------------------------------------------------------------- 
|                                                                             |
|  ADVICE TO THIS USER RUNNING 'VASP/VAMP'   (HEAR YOUR MASTER'S VOICE ...):  |
|                                                                             |
|      You have a (more or less) 'large supercell' and for larger cells       |
|      it might be more efficient to use real space projection opertators     |
|      So try LREAL= Auto  in the INCAR   file.                               |
|      Mind: At the moment your POTCAR file does not contain real space       |
|       projectors, and has to be modified,  BUT if you                       |
|      want to do an extremely  accurate calculation you might also keep the  |
|      reciprocal projection scheme          (i.e. LREAL=.FALSE.)             |
|                                                                             |
 ----------------------------------------------------------------------------- 

  PAW_PBE B 06Sep2000                   :
 energy of atom  1       EATOM=  -71.1703
 kinetic energy error for atom=    0.0012 (will be added to EATOM!!)
  PAW_PBE N 08Apr2002                   :
 energy of atom  2       EATOM= -264.5486
 kinetic energy error for atom=    0.0138 (will be added to EATOM!!)
  PAW_PBE Mo 08Apr2002                  :
 energy of atom  3       EATOM= -217.5176
 kinetic energy error for atom=    0.0017 (will be added to EATOM!!)
  PAW_PBE Se 06Sep2000                  :
 energy of atom  4       EATOM= -257.1286
 kinetic energy error for atom=    0.0008 (will be added to EATOM!!)
 
 
 POSCAR: Supercell, latPar1= 3.32, latPar2=2.51, 
  positions in direct lattice
  No initial velocities read in
 exchange correlation table for  LEXCH =        8
   RHO(1)=    0.500       N(1)  =     2000
   RHO(2)=  100.500       N(2)  =     4000
 


--------------------------------------------------------------------------------------------------------


 ion  position               nearest neighbor table
   1  0.190  0.048  0.001-  11 1.45  12 1.45   8 1.45
   2  0.333  0.333  0.001-   8 1.45   9 1.45  10 1.45
   3  0.762  0.191  0.001-  14 1.45  10 1.45  11 1.45
   4  0.047  0.762  0.001-  12 1.45   9 1.45  14 1.45
   5  0.476  0.619  0.001-  10 1.45  12 1.45  13 1.45
   6  0.905  0.476  0.001-   9 1.45  11 1.45  13 1.45
   7  0.619  0.905  0.001-   8 1.45  14 1.45  13 1.45
   8  0.381  0.095  0.001-   7 1.45   1 1.45   2 1.45
   9  0.095  0.524  0.001-   6 1.45   4 1.45   2 1.45
  10  0.524  0.381  0.001-   5 1.45   3 1.45   2 1.45
  11  0.952  0.238  0.001-   1 1.45   6 1.45   3 1.45
  12  0.238  0.810  0.001-   4 1.45   5 1.45   1 1.45
  13  0.667  0.667  0.001-   5 1.45   7 1.45   6 1.45
  14  0.809  0.953  0.001-   3 1.45   7 1.45   4 1.45
  15  0.167  0.167  0.172-  19 2.54  23 2.54  21 2.54  20 2.54  22 2.54  24 2.54  17 3.32  18 3.32
                            16 3.32  16 3.32  18 3.32  17 3.32
  16  0.667  0.167  0.172-  19 2.54  21 2.54  25 2.54  26 2.54  20 2.54  22 2.54  18 3.32  15 3.32
                            17 3.32  17 3.32  15 3.32  18 3.32
  17  0.167  0.667  0.172-  19 2.54  23 2.54  25 2.54  20 2.54  24 2.54  26 2.54  15 3.32  18 3.32
                            16 3.32  16 3.32  18 3.32  15 3.32
  18  0.667  0.667  0.172-  25 2.54  21 2.54  23 2.54  26 2.54  24 2.54  22 2.54  17 3.32  16 3.32
                            15 3.32  15 3.32  16 3.32  17 3.32
  19  0.333  0.333  0.228-  15 2.54  17 2.54  16 2.54
  20  0.333  0.333  0.116-  15 2.54  17 2.54  16 2.54
  21  0.833  0.333  0.228-  18 2.54  16 2.54  15 2.54
  22  0.833  0.333  0.116-  15 2.54  18 2.54  16 2.54
  23  0.333  0.833  0.228-  18 2.54  17 2.54  15 2.54
  24  0.333  0.833  0.116-  17 2.54  15 2.54  18 2.54
  25  0.833  0.833  0.228-  18 2.54  16 2.54  17 2.54
  26  0.833  0.833  0.116-  16 2.54  17 2.54  18 2.54
 
  LATTYP: Found a hexagonal cell.
 ALAT       =     6.6461268408
 C/A-ratio  =     4.5139072303
  
  Lattice vectors:
  
 A1 = (   3.3230632288,  -5.7557147915,   0.0000000000)
 A2 = (  -6.6461272240,   0.0000000000,   0.0000000000)
 A3 = (   0.0000000000,   0.0000000000, -30.0000000000)


Analysis of symmetry for initial positions (statically):
=====================================================================
 Subroutine PRICEL returns:
 Original cell was already a primitive cell.
 

 Routine SETGRP: Setting up the symmetry group for a 
 hexagonal supercell.


 Subroutine GETGRP returns: Found  1 space group operations
 (whereof  1 operations were pure point group operations)
 out of a pool of 24 trial point group operations.


The static configuration has the point symmetry C_1 .


Analysis of symmetry for dynamics (positions and initial velocities):
=====================================================================
 Subroutine PRICEL returns:
 Original cell was already a primitive cell.
 

 Routine SETGRP: Setting up the symmetry group for a 
 hexagonal supercell.


 Subroutine GETGRP returns: Found  1 space group operations
 (whereof  1 operations were pure point group operations)
 out of a pool of 24 trial point group operations.


The dynamic configuration has the point symmetry C_1 .


Analysis of constrained symmetry for selective dynamics:
=====================================================================
 Subroutine PRICEL returns:
 Original cell was already a primitive cell.
 

 Routine SETGRP: Setting up the symmetry group for a 
 hexagonal supercell.


 Subroutine GETGRP returns: Found  1 space group operations
 (whereof  1 operations were pure point group operations)
 out of a pool of 24 trial point group operations.


The constrained configuration has the point symmetry C_1 .
 
 
 KPOINTS: Points = G M K G , Index = 0 40 69 129 ,
  k-points in reciprocal lattice
Space group operators:
 irot       det(A)        alpha          n_x          n_y          n_z        tau_x        tau_y        tau_z
    1     1.000000     0.000001     1.000000     0.000000     0.000000     0.000000     0.000000     0.000000


--------------------------------------------------------------------------------------------------------




 Dimension of arrays:
   k-points           NKPTS =    130   k-points in BZ     NKDIM =    130   number of bands    NBANDS=     96
   number of dos      NEDOS =    301   number of ions     NIONS =     26
   non local maximal  LDIM  =      6   non local SUM 2l+1 LMDIM =     18
   total plane-waves  NPLWV = 217728
   max r-space proj   IRMAX =      1   max aug-charges    IRDMAX=  12379
   dimension x,y,z NGX =    36 NGY =   36 NGZ =  168
   dimension x,y,z NGXF=    72 NGYF=   72 NGZF=  336
   support grid    NGXF=    72 NGYF=   72 NGZF=  336
   ions per type =               7   7   4   8
 NGX,Y,Z   is equivalent  to a cutoff of   9.01,  9.01,  9.31 a.u.
 NGXF,Y,Z  is equivalent  to a cutoff of  18.01, 18.01, 18.62 a.u.


 I would recommend the setting:
   dimension x,y,z NGX =    36 NGY =   36 NGZ =  164
 SYSTEM =  SnS2_het                                
 POSCAR =  Supercell, latPar1= 3.32, latPar2=2.51, 

 Startparameter for this run:
   NWRITE =      2    write-flag & timer
   PREC   = normal    normal or accurate (medium, high low for compatibility)
   ISTART =      0    job   : 0-new  1-cont  2-samecut
   ICHARG =     11    charge: 1-file 2-atom 10-const
   ISPIN  =      1    spin polarized calculation?
   LNONCOLLINEAR =      F non collinear calculations
   LSORBIT =      F    spin-orbit coupling
   INIWAV =      1    electr: 0-lowe 1-rand  2-diag
   LASPH  =      F    aspherical Exc in radial PAW
   METAGGA=      F    non-selfconsistent MetaGGA calc.

 Electronic Relaxation 1
   ENCUT  =  500.0 eV  36.75 Ry    6.06 a.u.  12.12 12.12 54.70*2*pi/ulx,y,z
   ENINI  =  500.0     initial cutoff
   ENAUG  =  627.1 eV  augmentation charge cutoff
   NELM   =     60;   NELMIN=  2; NELMDL= -5     # of ELM steps 
   EDIFF  = 0.1E-04   stopping-criterion for ELM
   LREAL  =      F    real-space projection
   NLSPLINE    = F    spline interpolate recip. space projectors
   LCOMPAT=      F    compatible to vasp.4.4
   GGA_COMPAT  = T    GGA compatible to vasp.4.4-vasp.4.6
   LMAXPAW     = -100 max onsite density
   LMAXMIX     =    2 max onsite mixed and CHGCAR
   VOSKOWN=      0    Vosko Wilk Nusair interpolation
   ROPT   =    0.00000   0.00000   0.00000   0.00000
 Ionic relaxation
   EDIFFG = 0.1E-03   stopping-criterion for IOM
   NSW    =      0    number of steps for IOM
   NBLOCK =      1;   KBLOCK =      1    inner block; outer block 
   IBRION =     -1    ionic relax: 0-MD 1-quasi-New 2-CG
   NFREE  =      0    steps in history (QN), initial steepest desc. (CG)
   ISIF   =      2    stress and relaxation
   IWAVPR =     10    prediction:  0-non 1-charg 2-wave 3-comb
   ISYM   =      2    0-nonsym 1-usesym 2-fastsym
   LCORR  =      T    Harris-Foulkes like correction to forces

   POTIM  = 0.5000    time-step for ionic-motion
   TEIN   =    0.0    initial temperature
   TEBEG  =    0.0;   TEEND  =   0.0 temperature during run
   SMASS  =  -3.00    Nose mass-parameter (am)
   estimated Nose-frequenzy (Omega)   =  0.10E-29 period in steps =****** mass=  -0.101E-26a.u.
   SCALEE = 1.0000    scale energy and forces
   NPACO  =    256;   APACO  = 16.0  distance and # of slots for P.C.
   PSTRESS=    0.0 pullay stress

  Mass of Ions in am
   POMASS =  10.81 14.00 95.94 78.96
  Ionic Valenz
   ZVAL   =   3.00  5.00  6.00  6.00
  Atomic Wigner-Seitz radii
   RWIGS  =  -1.00 -1.00 -1.00 -1.00
  virtual crystal weights 
   VCA    =   1.00  1.00  1.00  1.00
   NELECT =     128.0000    total number of electrons
   NUPDOWN=      -1.0000    fix difference up-down

 DOS related values:
   EMIN   =  10.00;   EMAX   =-10.00  energy-range for DOS
   EFERMI =   0.00
   ISMEAR =     0;   SIGMA  =   0.10  broadening in eV -4-tet -1-fermi 0-gaus

 Electronic relaxation 2 (details)
   IALGO  =     38    algorithm
   LDIAG  =      T    sub-space diagonalisation (order eigenvalues)
   LSUBROT=      F    optimize rotation matrix (better conditioning)
   TURBO    =      0    0=normal 1=particle mesh
   IRESTART =      0    0=no restart 2=restart with 2 vectors
   NREBOOT  =      0    no. of reboots
   NMIN     =      0    reboot dimension
   EREF     =   0.00    reference energy to select bands
   IMIX   =      4    mixing-type and parameters
     AMIX     =   0.40;   BMIX     =  1.00
     AMIX_MAG =   1.60;   BMIX_MAG =  1.00
     AMIN     =   0.10
     WC   =   100.;   INIMIX=   1;  MIXPRE=   1;  MAXMIX= -45

 Intra band minimization:
   WEIMIN = 0.0000     energy-eigenvalue tresh-hold
   EBREAK =  0.26E-07  absolut break condition
   DEPER  =   0.30     relativ break condition  

   TIME   =   0.40     timestep for ELM

  volume/ion in A,a.u.               =      44.14       297.86
  Fermi-wavevector in a.u.,A,eV,Ry     =   0.788040  1.489180  8.449320  0.621008
  Thomas-Fermi vector in A             =   1.892902
 
 Write flags
   LWAVE  =      F    write WAVECAR
   LCHARG =      F    write CHGCAR
   LVTOT  =      T    write LOCPOT, total local potential
   LVHAR  =      F    write LOCPOT, Hartree potential only
   LELF   =      F    write electronic localiz. function (ELF)
   LORBIT =     11    0 simple, 1 ext, 2 COOP (PROOUT)


 Dipole corrections
   LMONO  =      F    monopole corrections only (constant potential shift)
   LDIPOL =      F    correct potential (dipole corrections)
   IDIPOL =      0    1-x, 2-y, 3-z, 4-all directions 
   EPSILON=  1.0000000 bulk dielectric constant

 Exchange correlation treatment:
   GGA     =    PE    GGA type
   LEXCH   =     8    internal setting for exchange type
   VOSKOWN=      0    Vosko Wilk Nusair interpolation
   LHFCALC =     F    Hartree Fock is set to
   LHFONE  =     F    Hartree Fock one center treatment
   AEXX    =    0.0000 exact exchange contribution

 Linear response parameters
   LEPSILON=     F    determine dielectric tensor
   LRPA    =     F    only Hartree local field effects (RPA)
   LNABLA  =     F    use nabla operator in PAW spheres
   LVEL    =     F    velocity operator in full k-point grid
   LINTERFAST=   F  fast interpolation
   KINTER  =     0    interpolate to denser k-point grid
   CSHIFT  =0.1000    complex shift for real part using Kramers Kronig
   OMEGAMAX=  -1.0    maximum frequency
   DEG_THRESHOLD= 0.2000000E-02 threshold for treating states as degnerate
   RTIME   =    0.100 relaxation time in fs

 Orbital magnetization related:
   ORBITALMAG=     F  switch on orbital magnetization
   LCHIMAG   =     F  perturbation theory with respect to B field
   DQ        =  0.001000  dq finite difference perturbation B field



--------------------------------------------------------------------------------------------------------


 Static calculation
 charge density and potential remain constant during run
 non-spin polarized calculation
 Variant of blocked Davidson
 Davidson routine will perform the subspace rotation
 perform sub-space diagonalisation
    after iterative eigenvector-optimisation
 no mixing
 using additional bands           32
 reciprocal scheme for non local part
 use partial core corrections
 calculate Harris-corrections to forces 
   (improved forces if not selfconsistent)
 use gradient corrections 
 WARNING: stress and forces are not correct
  (second derivative of E(xc) not defined)
 use of overlap-Matrix (Vanderbilt PP)
 Gauss-broadening in eV      SIGMA  =   0.10


--------------------------------------------------------------------------------------------------------


  energy-cutoff  :      500.00
  volume of cell :     1147.60
      direct lattice vectors                 reciprocal lattice vectors
     6.646127224  0.000000000  0.000000000     0.150463566 -0.086870193  0.000000000
     3.323063995  5.755714791  0.000000000     0.000000000  0.173740367  0.000000000
     0.000000000  0.000000000 30.000000000     0.000000000  0.000000000  0.033333333

  length of vectors
     6.646127224  6.646127224 30.000000000     0.173740367  0.173740367  0.033333333


 
 k-points in units of 2pi/SCALE and weight: Points = G M K G , Index = 0 40 69 129 ,
   0.00000000  0.00000000  0.00000000       0.008
   0.00188079 -0.00108588  0.00000000       0.008
   0.00376159 -0.00217175  0.00000000       0.008
   0.00564238 -0.00325763  0.00000000       0.008
   0.00752318 -0.00434351  0.00000000       0.008
   0.00940397 -0.00542939  0.00000000       0.008
   0.01128477 -0.00651526  0.00000000       0.008
   0.01316556 -0.00760114  0.00000000       0.008
   0.01504636 -0.00868702  0.00000000       0.008
   0.01692715 -0.00977290  0.00000000       0.008
   0.01880795 -0.01085877  0.00000000       0.008
   0.02068874 -0.01194465  0.00000000       0.008
   0.02256953 -0.01303053  0.00000000       0.008
   0.02445033 -0.01411641  0.00000000       0.008
   0.02633112 -0.01520228  0.00000000       0.008
   0.02821192 -0.01628816  0.00000000       0.008
   0.03009271 -0.01737404  0.00000000       0.008
   0.03197351 -0.01845992  0.00000000       0.008
   0.03385430 -0.01954579  0.00000000       0.008
   0.03573510 -0.02063167  0.00000000       0.008
   0.03761589 -0.02171755  0.00000000       0.008
   0.03949669 -0.02280343  0.00000000       0.008
   0.04137748 -0.02388930  0.00000000       0.008
   0.04325828 -0.02497518  0.00000000       0.008
   0.04513907 -0.02606106  0.00000000       0.008
   0.04701986 -0.02714694  0.00000000       0.008
   0.04890066 -0.02823281  0.00000000       0.008
   0.05078145 -0.02931869  0.00000000       0.008
   0.05266225 -0.03040457  0.00000000       0.008
   0.05454304 -0.03149045  0.00000000       0.008
   0.05642384 -0.03257632  0.00000000       0.008
   0.05830463 -0.03366220  0.00000000       0.008
   0.06018543 -0.03474808  0.00000000       0.008
   0.06206622 -0.03583395  0.00000000       0.008
   0.06394702 -0.03691983  0.00000000       0.008
   0.06582781 -0.03800571  0.00000000       0.008
   0.06770860 -0.03909159  0.00000000       0.008
   0.06958940 -0.04017746  0.00000000       0.008
   0.07147019 -0.04126334  0.00000000       0.008
   0.07335099 -0.04234922  0.00000000       0.008
   0.07523178 -0.04343510  0.00000000       0.008
   0.07609825 -0.04194033  0.00000000       0.008
   0.07696471 -0.04044556  0.00000000       0.008
   0.07783117 -0.03895080  0.00000000       0.008
   0.07869763 -0.03745603  0.00000000       0.008
   0.07956410 -0.03596127  0.00000000       0.008
   0.08043056 -0.03446650  0.00000000       0.008
   0.08129702 -0.03297173  0.00000000       0.008
   0.08216348 -0.03147697  0.00000000       0.008
   0.08302995 -0.02998220  0.00000000       0.008
   0.08389641 -0.02848743  0.00000000       0.008
   0.08476287 -0.02699267  0.00000000       0.008
   0.08562933 -0.02549790  0.00000000       0.008
   0.08649580 -0.02400314  0.00000000       0.008
   0.08736226 -0.02250837  0.00000000       0.008
   0.08822872 -0.02101360  0.00000000       0.008
   0.08909518 -0.01951884  0.00000000       0.008
   0.08996165 -0.01802407  0.00000000       0.008
   0.09082811 -0.01652931  0.00000000       0.008
   0.09169457 -0.01503454  0.00000000       0.008
   0.09256103 -0.01353977  0.00000000       0.008
   0.09342750 -0.01204501  0.00000000       0.008
   0.09429396 -0.01055024  0.00000000       0.008
   0.09516042 -0.00905547  0.00000000       0.008
   0.09602689 -0.00756071  0.00000000       0.008
   0.09689335 -0.00606594  0.00000000       0.008
   0.09775981 -0.00457118  0.00000000       0.008
   0.09862627 -0.00307641  0.00000000       0.008
   0.09949274 -0.00158164  0.00000000       0.008
   0.10035920 -0.00008688  0.00000000       0.008
   0.09868654 -0.00008543  0.00000000       0.008
   0.09701389 -0.00008398  0.00000000       0.008
   0.09534124 -0.00008253  0.00000000       0.008
   0.09366859 -0.00008109  0.00000000       0.008
   0.09199593 -0.00007964  0.00000000       0.008
   0.09032328 -0.00007819  0.00000000       0.008
   0.08865063 -0.00007674  0.00000000       0.008
   0.08697797 -0.00007529  0.00000000       0.008
   0.08530532 -0.00007385  0.00000000       0.008
   0.08363267 -0.00007240  0.00000000       0.008
   0.08196001 -0.00007095  0.00000000       0.008
   0.08028736 -0.00006950  0.00000000       0.008
   0.07861471 -0.00006805  0.00000000       0.008
   0.07694205 -0.00006661  0.00000000       0.008
   0.07526940 -0.00006516  0.00000000       0.008
   0.07359675 -0.00006371  0.00000000       0.008
   0.07192409 -0.00006226  0.00000000       0.008
   0.07025144 -0.00006081  0.00000000       0.008
   0.06857879 -0.00005937  0.00000000       0.008
   0.06690613 -0.00005792  0.00000000       0.008
   0.06523348 -0.00005647  0.00000000       0.008
   0.06356083 -0.00005502  0.00000000       0.008
   0.06188817 -0.00005357  0.00000000       0.008
   0.06021552 -0.00005213  0.00000000       0.008
   0.05854287 -0.00005068  0.00000000       0.008
   0.05687021 -0.00004923  0.00000000       0.008
   0.05519756 -0.00004778  0.00000000       0.008
   0.05352491 -0.00004633  0.00000000       0.008
   0.05185225 -0.00004489  0.00000000       0.008
   0.05017960 -0.00004344  0.00000000       0.008
   0.04850695 -0.00004199  0.00000000       0.008
   0.04683429 -0.00004054  0.00000000       0.008
   0.04516164 -0.00003909  0.00000000       0.008
   0.04348899 -0.00003765  0.00000000       0.008
   0.04181633 -0.00003620  0.00000000       0.008
   0.04014368 -0.00003475  0.00000000       0.008
   0.03847103 -0.00003330  0.00000000       0.008
   0.03679837 -0.00003185  0.00000000       0.008
   0.03512572 -0.00003041  0.00000000       0.008
   0.03345307 -0.00002896  0.00000000       0.008
   0.03178041 -0.00002751  0.00000000       0.008
   0.03010776 -0.00002606  0.00000000       0.008
   0.02843511 -0.00002462  0.00000000       0.008
   0.02676245 -0.00002317  0.00000000       0.008
   0.02508980 -0.00002172  0.00000000       0.008
   0.02341715 -0.00002027  0.00000000       0.008
   0.02174449 -0.00001882  0.00000000       0.008
   0.02007184 -0.00001738  0.00000000       0.008
   0.01839919 -0.00001593  0.00000000       0.008
   0.01672653 -0.00001448  0.00000000       0.008
   0.01505388 -0.00001303  0.00000000       0.008
   0.01338123 -0.00001158  0.00000000       0.008
   0.01170857 -0.00001014  0.00000000       0.008
   0.01003592 -0.00000869  0.00000000       0.008
   0.00836327 -0.00000724  0.00000000       0.008
   0.00669061 -0.00000579  0.00000000       0.008
   0.00501796 -0.00000434  0.00000000       0.008
   0.00334531 -0.00000290  0.00000000       0.008
   0.00167265 -0.00000145  0.00000000       0.008
   0.00000000  0.00000000  0.00000000       0.008
 
 k-points in reciprocal lattice and weights: Points = G M K G , Index = 0 40 69 129 ,
   0.00000000  0.00000000  0.00000000       0.008
   0.01250000  0.00000000  0.00000000       0.008
   0.02500000  0.00000000  0.00000000       0.008
   0.03750000  0.00000000  0.00000000       0.008
   0.05000000  0.00000000  0.00000000       0.008
   0.06250000  0.00000000  0.00000000       0.008
   0.07500000  0.00000000  0.00000000       0.008
   0.08750000  0.00000000  0.00000000       0.008
   0.10000000  0.00000000  0.00000000       0.008
   0.11250000  0.00000000  0.00000000       0.008
   0.12500000  0.00000000  0.00000000       0.008
   0.13750000  0.00000000  0.00000000       0.008
   0.15000000  0.00000000  0.00000000       0.008
   0.16250000  0.00000000  0.00000000       0.008
   0.17500000  0.00000000  0.00000000       0.008
   0.18750000  0.00000000  0.00000000       0.008
   0.20000000  0.00000000  0.00000000       0.008
   0.21250000  0.00000000  0.00000000       0.008
   0.22500000  0.00000000  0.00000000       0.008
   0.23750000  0.00000000  0.00000000       0.008
   0.25000000  0.00000000  0.00000000       0.008
   0.26250000  0.00000000  0.00000000       0.008
   0.27500000  0.00000000  0.00000000       0.008
   0.28750000  0.00000000  0.00000000       0.008
   0.30000000  0.00000000  0.00000000       0.008
   0.31250000  0.00000000  0.00000000       0.008
   0.32500000  0.00000000  0.00000000       0.008
   0.33750000  0.00000000  0.00000000       0.008
   0.35000000  0.00000000  0.00000000       0.008
   0.36250000  0.00000000  0.00000000       0.008
   0.37500000  0.00000000  0.00000000       0.008
   0.38750000  0.00000000  0.00000000       0.008
   0.40000000  0.00000000  0.00000000       0.008
   0.41250000  0.00000000  0.00000000       0.008
   0.42500000  0.00000000  0.00000000       0.008
   0.43750000  0.00000000  0.00000000       0.008
   0.45000000  0.00000000  0.00000000       0.008
   0.46250000  0.00000000  0.00000000       0.008
   0.47500000  0.00000000  0.00000000       0.008
   0.48750000  0.00000000  0.00000000       0.008
   0.50000000  0.00000000  0.00000000       0.008
   0.50575862  0.01148276  0.00000000       0.008
   0.51151724  0.02296552  0.00000000       0.008
   0.51727586  0.03444828  0.00000000       0.008
   0.52303448  0.04593103  0.00000000       0.008
   0.52879310  0.05741379  0.00000000       0.008
   0.53455172  0.06889655  0.00000000       0.008
   0.54031034  0.08037931  0.00000000       0.008
   0.54606897  0.09186207  0.00000000       0.008
   0.55182759  0.10334483  0.00000000       0.008
   0.55758621  0.11482759  0.00000000       0.008
   0.56334483  0.12631034  0.00000000       0.008
   0.56910345  0.13779310  0.00000000       0.008
   0.57486207  0.14927586  0.00000000       0.008
   0.58062069  0.16075862  0.00000000       0.008
   0.58637931  0.17224138  0.00000000       0.008
   0.59213793  0.18372414  0.00000000       0.008
   0.59789655  0.19520690  0.00000000       0.008
   0.60365517  0.20668966  0.00000000       0.008
   0.60941379  0.21817241  0.00000000       0.008
   0.61517241  0.22965517  0.00000000       0.008
   0.62093103  0.24113793  0.00000000       0.008
   0.62668966  0.25262069  0.00000000       0.008
   0.63244828  0.26410345  0.00000000       0.008
   0.63820690  0.27558621  0.00000000       0.008
   0.64396552  0.28706897  0.00000000       0.008
   0.64972414  0.29855172  0.00000000       0.008
   0.65548276  0.31003448  0.00000000       0.008
   0.66124138  0.32151724  0.00000000       0.008
   0.66700000  0.33300000  0.00000000       0.008
   0.65588333  0.32745000  0.00000000       0.008
   0.64476667  0.32190000  0.00000000       0.008
   0.63365000  0.31635000  0.00000000       0.008
   0.62253333  0.31080000  0.00000000       0.008
   0.61141667  0.30525000  0.00000000       0.008
   0.60030000  0.29970000  0.00000000       0.008
   0.58918333  0.29415000  0.00000000       0.008
   0.57806667  0.28860000  0.00000000       0.008
   0.56695000  0.28305000  0.00000000       0.008
   0.55583333  0.27750000  0.00000000       0.008
   0.54471667  0.27195000  0.00000000       0.008
   0.53360000  0.26640000  0.00000000       0.008
   0.52248333  0.26085000  0.00000000       0.008
   0.51136667  0.25530000  0.00000000       0.008
   0.50025000  0.24975000  0.00000000       0.008
   0.48913333  0.24420000  0.00000000       0.008
   0.47801667  0.23865000  0.00000000       0.008
   0.46690000  0.23310000  0.00000000       0.008
   0.45578333  0.22755000  0.00000000       0.008
   0.44466667  0.22200000  0.00000000       0.008
   0.43355000  0.21645000  0.00000000       0.008
   0.42243333  0.21090000  0.00000000       0.008
   0.41131667  0.20535000  0.00000000       0.008
   0.40020000  0.19980000  0.00000000       0.008
   0.38908333  0.19425000  0.00000000       0.008
   0.37796667  0.18870000  0.00000000       0.008
   0.36685000  0.18315000  0.00000000       0.008
   0.35573333  0.17760000  0.00000000       0.008
   0.34461667  0.17205000  0.00000000       0.008
   0.33350000  0.16650000  0.00000000       0.008
   0.32238333  0.16095000  0.00000000       0.008
   0.31126667  0.15540000  0.00000000       0.008
   0.30015000  0.14985000  0.00000000       0.008
   0.28903333  0.14430000  0.00000000       0.008
   0.27791667  0.13875000  0.00000000       0.008
   0.26680000  0.13320000  0.00000000       0.008
   0.25568333  0.12765000  0.00000000       0.008
   0.24456667  0.12210000  0.00000000       0.008
   0.23345000  0.11655000  0.00000000       0.008
   0.22233333  0.11100000  0.00000000       0.008
   0.21121667  0.10545000  0.00000000       0.008
   0.20010000  0.09990000  0.00000000       0.008
   0.18898333  0.09435000  0.00000000       0.008
   0.17786667  0.08880000  0.00000000       0.008
   0.16675000  0.08325000  0.00000000       0.008
   0.15563333  0.07770000  0.00000000       0.008
   0.14451667  0.07215000  0.00000000       0.008
   0.13340000  0.06660000  0.00000000       0.008
   0.12228333  0.06105000  0.00000000       0.008
   0.11116667  0.05550000  0.00000000       0.008
   0.10005000  0.04995000  0.00000000       0.008
   0.08893333  0.04440000  0.00000000       0.008
   0.07781667  0.03885000  0.00000000       0.008
   0.06670000  0.03330000  0.00000000       0.008
   0.05558333  0.02775000  0.00000000       0.008
   0.04446667  0.02220000  0.00000000       0.008
   0.03335000  0.01665000  0.00000000       0.008
   0.02223333  0.01110000  0.00000000       0.008
   0.01111667  0.00555000  0.00000000       0.008
   0.00000000  0.00000000  0.00000000       0.008
 
 position of ions in fractional coordinates (direct lattice) 
   0.19044101  0.04760575  0.00087000
   0.33323893  0.33341733  0.00111268
   0.76184222  0.19062720  0.00087000
   0.04743683  0.76204340  0.00088000
   0.47604498  0.61916092  0.00102514
   0.90469478  0.47624121  0.00102448
   0.61895689  0.90491175  0.00102529
   0.38090933  0.09526816  0.00103183
   0.09507665  0.52391673  0.00103209
   0.52372928  0.38109682  0.00103204
   0.95243235  0.23810081  0.00076000
   0.23791496  0.80954968  0.00076000
   0.66656263  0.66677952  0.00116232
   0.80934479  0.95265282  0.00076000
   0.16664032  0.16673222  0.17200700
   0.66665275  0.16663143  0.17201000
   0.16672282  0.66664096  0.17200800
   0.66665787  0.66667213  0.17205700
   0.33332284  0.33333951  0.22760700
   0.33332985  0.33333329  0.11636700
   0.83332941  0.33323854  0.22763300
   0.83328976  0.33344334  0.11637500
   0.33321898  0.83343981  0.22763300
   0.33343207  0.83328151  0.11637600
   0.83342248  0.83333961  0.22763300
   0.83328923  0.83326562  0.11637800
 
 position of ions in cartesian coordinates  (Angst):
   1.42389214  0.27400513  0.02610000
   3.32271546  1.91905507  0.03338040
   5.69676671  1.09719578  0.02610000
   2.84759020  4.38610448  0.02640000
   5.22136686  3.56371368  0.03075420
   7.59529660  2.74110858  0.03073440
   7.12074589  5.20841395  0.03075870
   2.84815409  0.54833636  0.03095490
   2.37290038  3.01551529  0.03096270
   4.74718053  2.19348460  0.03096120
   7.12121079  1.37044034  0.02280000
   4.27139845  4.65953705  0.02280000
   6.64581109  3.83779275  0.03486960
   8.54473471  5.48319794  0.02280000
   1.66157458  0.95966311  5.16021000
   4.98438588  0.95908299  5.16030000
   3.32335166  3.83699522  5.16024000
   6.64608719  3.83717466  5.16171000
   3.32301450  1.91860712  6.82821000
   3.32304041  1.91857134  3.49101000
   6.64578630  1.91802601  6.82899000
   6.64620329  1.91920474  3.49125000
   4.98418955  4.79704183  6.82899000
   4.98507976  4.79613073  3.49128000
   8.30827269  4.79646510  6.82899000
   8.30714119  4.79603924  3.49134000
 


--------------------------------------------------------------------------------------------------------


 k-point  1 :   0.0000 0.0000 0.0000  plane waves:   28957
 k-point  2 :   0.0125 0.0000 0.0000  plane waves:   28985
 k-point  3 :   0.0250 0.0000 0.0000  plane waves:   28999
 k-point  4 :   0.0375 0.0000 0.0000  plane waves:   28999
 k-point  5 :   0.0500 0.0000 0.0000  plane waves:   29021
 k-point  6 :   0.0625 0.0000 0.0000  plane waves:   29025
 k-point  7 :   0.0750 0.0000 0.0000  plane waves:   29023
 k-point  8 :   0.0875 0.0000 0.0000  plane waves:   29031
 k-point  9 :   0.1000 0.0000 0.0000  plane waves:   29049
 k-point 10 :   0.1125 0.0000 0.0000  plane waves:   29055
 k-point 11 :   0.1250 0.0000 0.0000  plane waves:   29091
 k-point 12 :   0.1375 0.0000 0.0000  plane waves:   29093
 k-point 13 :   0.1500 0.0000 0.0000  plane waves:   29099
 k-point 14 :   0.1625 0.0000 0.0000  plane waves:   29115
 k-point 15 :   0.1750 0.0000 0.0000  plane waves:   29091
 k-point 16 :   0.1875 0.0000 0.0000  plane waves:   29115
 k-point 17 :   0.2000 0.0000 0.0000  plane waves:   29109
 k-point 18 :   0.2125 0.0000 0.0000  plane waves:   29123
 k-point 19 :   0.2250 0.0000 0.0000  plane waves:   29133
 k-point 20 :   0.2375 0.0000 0.0000  plane waves:   29145
 k-point 21 :   0.2500 0.0000 0.0000  plane waves:   29151
 k-point 22 :   0.2625 0.0000 0.0000  plane waves:   29135
 k-point 23 :   0.2750 0.0000 0.0000  plane waves:   29121
 k-point 24 :   0.2875 0.0000 0.0000  plane waves:   29133
 k-point 25 :   0.3000 0.0000 0.0000  plane waves:   29141
 k-point 26 :   0.3125 0.0000 0.0000  plane waves:   29139
 k-point 27 :   0.3250 0.0000 0.0000  plane waves:   29139
 k-point 28 :   0.3375 0.0000 0.0000  plane waves:   29167
 k-point 29 :   0.3500 0.0000 0.0000  plane waves:   29175
 k-point 30 :   0.3625 0.0000 0.0000  plane waves:   29155
 k-point 31 :   0.3750 0.0000 0.0000  plane waves:   29151
 k-point 32 :   0.3875 0.0000 0.0000  plane waves:   29153
 k-point 33 :   0.4000 0.0000 0.0000  plane waves:   29175
 k-point 34 :   0.4125 0.0000 0.0000  plane waves:   29155
 k-point 35 :   0.4250 0.0000 0.0000  plane waves:   29159
 k-point 36 :   0.4375 0.0000 0.0000  plane waves:   29163
 k-point 37 :   0.4500 0.0000 0.0000  plane waves:   29151
 k-point 38 :   0.4625 0.0000 0.0000  plane waves:   29137
 k-point 39 :   0.4750 0.0000 0.0000  plane waves:   29133
 k-point 40 :   0.4875 0.0000 0.0000  plane waves:   29117
 k-point 41 :   0.5000 0.0000 0.0000  plane waves:   29108
 k-point 42 :   0.5058 0.0115 0.0000  plane waves:   29114
 k-point 43 :   0.5115 0.0230 0.0000  plane waves:   29122
 k-point 44 :   0.5173 0.0344 0.0000  plane waves:   29136
 k-point 45 :   0.5230 0.0459 0.0000  plane waves:   29160
 k-point 46 :   0.5288 0.0574 0.0000  plane waves:   29168
 k-point 47 :   0.5346 0.0689 0.0000  plane waves:   29176
 k-point 48 :   0.5403 0.0804 0.0000  plane waves:   29170
 k-point 49 :   0.5461 0.0919 0.0000  plane waves:   29172
 k-point 50 :   0.5518 0.1033 0.0000  plane waves:   29164
 k-point 51 :   0.5576 0.1148 0.0000  plane waves:   29158
 k-point 52 :   0.5633 0.1263 0.0000  plane waves:   29138
 k-point 53 :   0.5691 0.1378 0.0000  plane waves:   29126
 k-point 54 :   0.5749 0.1493 0.0000  plane waves:   29144
 k-point 55 :   0.5806 0.1608 0.0000  plane waves:   29154
 k-point 56 :   0.5864 0.1722 0.0000  plane waves:   29152
 k-point 57 :   0.5921 0.1837 0.0000  plane waves:   29158
 k-point 58 :   0.5979 0.1952 0.0000  plane waves:   29158
 k-point 59 :   0.6037 0.2067 0.0000  plane waves:   29142
 k-point 60 :   0.6094 0.2182 0.0000  plane waves:   29146
 k-point 61 :   0.6152 0.2297 0.0000  plane waves:   29150
 k-point 62 :   0.6209 0.2411 0.0000  plane waves:   29164
 k-point 63 :   0.6267 0.2526 0.0000  plane waves:   29172
 k-point 64 :   0.6324 0.2641 0.0000  plane waves:   29164
 k-point 65 :   0.6382 0.2756 0.0000  plane waves:   29176
 k-point 66 :   0.6440 0.2871 0.0000  plane waves:   29174
 k-point 67 :   0.6497 0.2986 0.0000  plane waves:   29150
 k-point 68 :   0.6555 0.3100 0.0000  plane waves:   29158
 k-point 69 :   0.6612 0.3215 0.0000  plane waves:   29152
 k-point 70 :   0.6670 0.3330 0.0000  plane waves:   29136
 k-point 71 :   0.6559 0.3275 0.0000  plane waves:   29146
 k-point 72 :   0.6448 0.3219 0.0000  plane waves:   29150
 k-point 73 :   0.6337 0.3164 0.0000  plane waves:   29178
 k-point 74 :   0.6225 0.3108 0.0000  plane waves:   29188
 k-point 75 :   0.6114 0.3053 0.0000  plane waves:   29188
 k-point 76 :   0.6003 0.2997 0.0000  plane waves:   29162
 k-point 77 :   0.5892 0.2942 0.0000  plane waves:   29166
 k-point 78 :   0.5781 0.2886 0.0000  plane waves:   29154
 k-point 79 :   0.5669 0.2831 0.0000  plane waves:   29152
 k-point 80 :   0.5558 0.2775 0.0000  plane waves:   29168
 k-point 81 :   0.5447 0.2720 0.0000  plane waves:   29156
 k-point 82 :   0.5336 0.2664 0.0000  plane waves:   29158
 k-point 83 :   0.5225 0.2609 0.0000  plane waves:   29152
 k-point 84 :   0.5114 0.2553 0.0000  plane waves:   29154
 k-point 85 :   0.5002 0.2497 0.0000  plane waves:   29168
 k-point 86 :   0.4891 0.2442 0.0000  plane waves:   29176
 k-point 87 :   0.4780 0.2387 0.0000  plane waves:   29174
 k-point 88 :   0.4669 0.2331 0.0000  plane waves:   29164
 k-point 89 :   0.4558 0.2276 0.0000  plane waves:   29164
 k-point 90 :   0.4447 0.2220 0.0000  plane waves:   29158
 k-point 91 :   0.4335 0.2165 0.0000  plane waves:   29150
 k-point 92 :   0.4224 0.2109 0.0000  plane waves:   29148
 k-point 93 :   0.4113 0.2054 0.0000  plane waves:   29142
 k-point 94 :   0.4002 0.1998 0.0000  plane waves:   29120
 k-point 95 :   0.3891 0.1943 0.0000  plane waves:   29124
 k-point 96 :   0.3780 0.1887 0.0000  plane waves:   29134
 k-point 97 :   0.3669 0.1832 0.0000  plane waves:   29140
 k-point 98 :   0.3557 0.1776 0.0000  plane waves:   29116
 k-point 99 :   0.3446 0.1721 0.0000  plane waves:   29118
 k-point ** :   0.3335 0.1665 0.0000  plane waves:   29120
 k-point ** :   0.3224 0.1610 0.0000  plane waves:   29102
 k-point ** :   0.3113 0.1554 0.0000  plane waves:   29102
 k-point ** :   0.3001 0.1499 0.0000  plane waves:   29102
 k-point ** :   0.2890 0.1443 0.0000  plane waves:   29124
 k-point ** :   0.2779 0.1388 0.0000  plane waves:   29116
 k-point ** :   0.2668 0.1332 0.0000  plane waves:   29104
 k-point ** :   0.2557 0.1277 0.0000  plane waves:   29102
 k-point ** :   0.2446 0.1221 0.0000  plane waves:   29092
 k-point ** :   0.2334 0.1166 0.0000  plane waves:   29056
 k-point ** :   0.2223 0.1110 0.0000  plane waves:   29078
 k-point ** :   0.2112 0.1055 0.0000  plane waves:   29076
 k-point ** :   0.2001 0.0999 0.0000  plane waves:   29084
 k-point ** :   0.1890 0.0944 0.0000  plane waves:   29084
 k-point ** :   0.1779 0.0888 0.0000  plane waves:   29072
 k-point ** :   0.1668 0.0833 0.0000  plane waves:   29070
 k-point ** :   0.1556 0.0777 0.0000  plane waves:   29066
 k-point ** :   0.1445 0.0722 0.0000  plane waves:   29072
 k-point ** :   0.1334 0.0666 0.0000  plane waves:   29048
 k-point ** :   0.1223 0.0611 0.0000  plane waves:   29050
 k-point ** :   0.1112 0.0555 0.0000  plane waves:   29035
 k-point ** :   0.1001 0.0500 0.0000  plane waves:   29041
 k-point ** :   0.0889 0.0444 0.0000  plane waves:   29031
 k-point ** :   0.0778 0.0389 0.0000  plane waves:   29039
 k-point ** :   0.0667 0.0333 0.0000  plane waves:   29031
 k-point ** :   0.0556 0.0278 0.0000  plane waves:   29007
 k-point ** :   0.0445 0.0222 0.0000  plane waves:   29003
 k-point ** :   0.0333 0.0167 0.0000  plane waves:   28997
 k-point ** :   0.0222 0.0111 0.0000  plane waves:   28985
 k-point ** :   0.0111 0.0056 0.0000  plane waves:   28977
 k-point ** :   0.0000 0.0000 0.0000  plane waves:   28957

 maximum and minimum number of plane-waves per node :      7330     7228

 maximum number of plane-waves:     29188
 maximum index in each direction: 
   IXMAX=   12   IYMAX=   12   IZMAX=   54
   IXMIN=  -12   IYMIN=  -12   IZMIN=  -54

 WARNING: aliasing errors must be expected set NGX to  50 to avoid them
 WARNING: aliasing errors must be expected set NGY to  50 to avoid them
 WARNING: aliasing errors must be expected set NGZ to 218 to avoid them
 aliasing errors are usually negligible using standard VASP settings
 and one can safely disregard these warnings

 parallel 3D FFT for wavefunctions:
    minimum data exchange during FFTs selected (reduces bandwidth)
 parallel 3D FFT for charge:
    minimum data exchange during FFTs selected (reduces bandwidth)


 total amount of memory used by VASP on root node  1348424. kBytes
========================================================================

   base      :      30000. kBytes
   nonl-proj :     551919. kBytes
   fftplans  :       9051. kBytes
   grid      :      17931. kBytes
   one-center:        108. kBytes
   wavefun   :     739415. kBytes
 
     INWAV:  cpu time    0.0010: real time    0.0007
 initial charge density was supplied:
 number of electron     128.0000021 magnetization 
 keeping initial charge density in first step


--------------------------------------------------------------------------------------------------------


 Maximum index for augmentation-charges         1526 (set IRDMAX)


--------------------------------------------------------------------------------------------------------


 First call to EWALD:  gamma=   0.169
 Maximum number of real-space cells 5x 5x 1
 Maximum number of reciprocal cells 2x 2x 7

 FEWALD executed in parallel
    FEWALD:  cpu time    0.0030: real time    0.0032


----------------------------------------- Iteration    1(   1)  ---------------------------------------


    POTLOK:  cpu time    0.4859: real time    0.4854
    SETDIJ:  cpu time    0.0140: real time    0.0145
     EDDAV:  cpu time  605.0920: real time  605.4662
       DOS:  cpu time    0.0300: real time    0.0308
    --------------------------------------------
      LOOP:  cpu time  605.6299: real time  606.0074

 eigenvalue-minimisations  : 24960
 total energy-change (2. order) : 0.9018115E+03  (-0.4442341E+04)
 number of electron     128.0000021 magnetization 
 augmentation part      128.0000021 magnetization 

 Free energy of the ion-electron system (eV)
  ---------------------------------------------------
  alpha Z        PSCENC =       137.63011436
  Ewald energy   TEWEN  =     40730.95520797
  -Hartree energ DENC   =    -45604.23445750
  -exchange      EXHF   =         0.00000000
  -V(xc)+E(xc)   XCENC  =       -46.04911023
  PAW double counting   =     11027.13396122   -10643.53089519
  entropy T*S    EENTRO =        -0.06115610
  eigenvalues    EBANDS =        22.95395360
  atomic energy  EATOM  =      5277.01384425
  Solvation  Ediel_sol  =         0.00000000
  ---------------------------------------------------
  free energy    TOTEN  =       901.81146235 eV

  energy without entropy =      901.87261846  energy(sigma->0) =      901.84204040


--------------------------------------------------------------------------------------------------------




----------------------------------------- Iteration    1(   2)  ---------------------------------------


     EDDAV:  cpu time  839.4704: real time  839.9820
       DOS:  cpu time    0.0290: real time    0.0288
    --------------------------------------------
      LOOP:  cpu time  839.5014: real time  840.0335

 eigenvalue-minimisations  : 37736
 total energy-change (2. order) :-0.9472517E+03  (-0.8692064E+03)
 number of electron     128.0000021 magnetization 
 augmentation part      128.0000021 magnetization 

 Free energy of the ion-electron system (eV)
  ---------------------------------------------------
  alpha Z        PSCENC =       137.63011436
  Ewald energy   TEWEN  =     40730.95520797
  -Hartree energ DENC   =    -45604.23445750
  -exchange      EXHF   =         0.00000000
  -V(xc)+E(xc)   XCENC  =       -46.04911023
  PAW double counting   =     11027.13396122   -10643.53089519
  entropy T*S    EENTRO =        -0.00016557
  eigenvalues    EBANDS =      -924.35870871
  atomic energy  EATOM  =      5277.01384425
  Solvation  Ediel_sol  =         0.00000000
  ---------------------------------------------------
  free energy    TOTEN  =       -45.44020943 eV

  energy without entropy =      -45.44004386  energy(sigma->0) =      -45.44012664


--------------------------------------------------------------------------------------------------------




----------------------------------------- Iteration    1(   3)  ---------------------------------------


     EDDAV:  cpu time  698.2798: real time  698.6818
       DOS:  cpu time    0.0150: real time    0.0147
    --------------------------------------------
      LOOP:  cpu time  698.2978: real time  698.7193

 eigenvalue-minimisations  : 30080
 total energy-change (2. order) :-0.1518826E+03  (-0.1490600E+03)
 number of electron     128.0000021 magnetization 
 augmentation part      128.0000021 magnetization 

 Free energy of the ion-electron system (eV)
  ---------------------------------------------------
  alpha Z        PSCENC =       137.63011436
  Ewald energy   TEWEN  =     40730.95520797
  -Hartree energ DENC   =    -45604.23445750
  -exchange      EXHF   =         0.00000000
  -V(xc)+E(xc)   XCENC  =       -46.04911023
  PAW double counting   =     11027.13396122   -10643.53089519
  entropy T*S    EENTRO =        -0.00000000
  eigenvalues    EBANDS =     -1076.24149405
  atomic energy  EATOM  =      5277.01384425
  Solvation  Ediel_sol  =         0.00000000
  ---------------------------------------------------
  free energy    TOTEN  =      -197.32282919 eV

  energy without entropy =     -197.32282919  energy(sigma->0) =     -197.32282919


--------------------------------------------------------------------------------------------------------




----------------------------------------- Iteration    1(   4)  ---------------------------------------


     EDDAV:  cpu time  716.3181: real time  716.6967
       DOS:  cpu time    0.0140: real time    0.0146
    --------------------------------------------
      LOOP:  cpu time  716.3351: real time  716.7350

 eigenvalue-minimisations  : 31104
 total energy-change (2. order) :-0.5235749E+01  (-0.5207208E+01)
 number of electron     128.0000021 magnetization 
 augmentation part      128.0000021 magnetization 

 Free energy of the ion-electron system (eV)
  ---------------------------------------------------
  alpha Z        PSCENC =       137.63011436
  Ewald energy   TEWEN  =     40730.95520797
  -Hartree energ DENC   =    -45604.23445750
  -exchange      EXHF   =         0.00000000
  -V(xc)+E(xc)   XCENC  =       -46.04911023
  PAW double counting   =     11027.13396122   -10643.53089519
  entropy T*S    EENTRO =        -0.00000000
  eigenvalues    EBANDS =     -1081.47724265
  atomic energy  EATOM  =      5277.01384425
  Solvation  Ediel_sol  =         0.00000000
  ---------------------------------------------------
  free energy    TOTEN  =      -202.55857779 eV

  energy without entropy =     -202.55857779  energy(sigma->0) =     -202.55857779


--------------------------------------------------------------------------------------------------------




----------------------------------------- Iteration    1(   5)  ---------------------------------------


     EDDAV:  cpu time  714.3864: real time  714.7888
       DOS:  cpu time    0.0150: real time    0.0149
    --------------------------------------------
      LOOP:  cpu time  714.4034: real time  714.8226

 eigenvalue-minimisations  : 31016
 total energy-change (2. order) :-0.1303138E+00  (-0.1300709E+00)
 number of electron     128.0000021 magnetization 
 augmentation part      128.0000021 magnetization 

 Free energy of the ion-electron system (eV)
  ---------------------------------------------------
  alpha Z        PSCENC =       137.63011436
  Ewald energy   TEWEN  =     40730.95520797
  -Hartree energ DENC   =    -45604.23445750
  -exchange      EXHF   =         0.00000000
  -V(xc)+E(xc)   XCENC  =       -46.04911023
  PAW double counting   =     11027.13396122   -10643.53089519
  entropy T*S    EENTRO =        -0.00000000
  eigenvalues    EBANDS =     -1081.60755642
  atomic energy  EATOM  =      5277.01384425
  Solvation  Ediel_sol  =         0.00000000
  ---------------------------------------------------
  free energy    TOTEN  =      -202.68889156 eV

  energy without entropy =     -202.68889156  energy(sigma->0) =     -202.68889156


--------------------------------------------------------------------------------------------------------




----------------------------------------- Iteration    1(   6)  ---------------------------------------


     EDDAV:  cpu time  724.6898: real time  725.0648
       DOS:  cpu time    0.0150: real time    0.0149
    --------------------------------------------
      LOOP:  cpu time  724.7078: real time  725.1050

 eigenvalue-minimisations  : 31592
 total energy-change (2. order) :-0.4683434E-02  (-0.4681340E-02)
 number of electron     128.0000021 magnetization 
 augmentation part      128.0000021 magnetization 

 Free energy of the ion-electron system (eV)
  ---------------------------------------------------
  alpha Z        PSCENC =       137.63011436
  Ewald energy   TEWEN  =     40730.95520797
  -Hartree energ DENC   =    -45604.23445750
  -exchange      EXHF   =         0.00000000
  -V(xc)+E(xc)   XCENC  =       -46.04911023
  PAW double counting   =     11027.13396122   -10643.53089519
  entropy T*S    EENTRO =        -0.00000000
  eigenvalues    EBANDS =     -1081.61223985
  atomic energy  EATOM  =      5277.01384425
  Solvation  Ediel_sol  =         0.00000000
  ---------------------------------------------------
  free energy    TOTEN  =      -202.69357500 eV

  energy without entropy =     -202.69357500  energy(sigma->0) =     -202.69357500


--------------------------------------------------------------------------------------------------------




----------------------------------------- Iteration    1(   7)  ---------------------------------------


     EDDAV:  cpu time  742.0132: real time  742.3974
       DOS:  cpu time    0.0150: real time    0.0156
    --------------------------------------------
      LOOP:  cpu time  742.0302: real time  742.4344

 eigenvalue-minimisations  : 32512
 total energy-change (2. order) :-0.1940892E-03  (-0.1940644E-03)
 number of electron     128.0000021 magnetization 
 augmentation part      128.0000021 magnetization 

 Free energy of the ion-electron system (eV)
  ---------------------------------------------------
  alpha Z        PSCENC =       137.63011436
  Ewald energy   TEWEN  =     40730.95520797
  -Hartree energ DENC   =    -45604.23445750
  -exchange      EXHF   =         0.00000000
  -V(xc)+E(xc)   XCENC  =       -46.04911023
  PAW double counting   =     11027.13396122   -10643.53089519
  entropy T*S    EENTRO =        -0.00000000
  eigenvalues    EBANDS =     -1081.61243394
  atomic energy  EATOM  =      5277.01384425
  Solvation  Ediel_sol  =         0.00000000
  ---------------------------------------------------
  free energy    TOTEN  =      -202.69376908 eV

  energy without entropy =     -202.69376908  energy(sigma->0) =     -202.69376908


--------------------------------------------------------------------------------------------------------




----------------------------------------- Iteration    1(   8)  ---------------------------------------


     EDDAV:  cpu time  643.4592: real time  643.8033
       DOS:  cpu time    0.0150: real time    0.0149
    --------------------------------------------
      LOOP:  cpu time  643.4762: real time  643.8420

 eigenvalue-minimisations  : 27040
 total energy-change (2. order) :-0.7236136E-05  (-0.7235900E-05)
 number of electron     128.0000021 magnetization 
 augmentation part      128.0000021 magnetization 

 Free energy of the ion-electron system (eV)
  ---------------------------------------------------
  alpha Z        PSCENC =       137.63011436
  Ewald energy   TEWEN  =     40730.95520797
  -Hartree energ DENC   =    -45604.23445750
  -exchange      EXHF   =         0.00000000
  -V(xc)+E(xc)   XCENC  =       -46.04911023
  PAW double counting   =     11027.13396122   -10643.53089519
  entropy T*S    EENTRO =        -0.00000000
  eigenvalues    EBANDS =     -1081.61244118
  atomic energy  EATOM  =      5277.01384425
  Solvation  Ediel_sol  =         0.00000000
  ---------------------------------------------------
  free energy    TOTEN  =      -202.69377632 eV

  energy without entropy =     -202.69377632  energy(sigma->0) =     -202.69377632


--------------------------------------------------------------------------------------------------------




 average (electrostatic) potential at core
  the test charge radii are     0.7672  0.7089  1.2296  1.0808
  (the norm of the test charge is              1.0000)
       1 -34.2701       2 -34.2810       3 -34.2690       4 -34.2702       5 -34.2746
       6 -34.2745       7 -34.2744       8 -70.1781       9 -70.1777      10 -70.1775
      11 -70.1704      12 -70.1712      13 -70.1862      14 -70.1706      15 -45.6780
      16 -45.6781      17 -45.6779      18 -45.6747      19 -60.3603      20 -60.3611
      21 -60.3577      22 -60.3580      23 -60.3577      24 -60.3580      25 -60.3577
      26 -60.3580
 
 
 
 E-fermi :  -1.7784     XC(G=0):  -3.7612     alpha+bet : -3.4797


 k-point     1 :       0.0000    0.0000    0.0000
  band No.  band energies     occupation 
      1     -20.5769      2.00000
      2     -18.1868      2.00000
      3     -18.1861      2.00000
      4     -18.1854      2.00000
      5     -18.1841      2.00000
      6     -18.1831      2.00000
      7     -18.1820      2.00000
      8     -16.4158      2.00000
      9     -15.4829      2.00000
     10     -14.7438      2.00000
     11     -14.7416      2.00000
     12     -14.7416      2.00000
     13     -14.5077      2.00000
     14     -14.5054      2.00000
     15     -14.5053      2.00000
     16     -10.1951      2.00000
     17     -10.1947      2.00000
     18     -10.1944      2.00000
     19     -10.1922      2.00000
     20     -10.1919      2.00000
     21     -10.1911      2.00000
     22      -8.3194      2.00000
     23      -7.8563      2.00000
     24      -7.8563      2.00000
     25      -7.8560      2.00000
     26      -7.6535      2.00000
     27      -7.6534      2.00000
     28      -7.6532      2.00000
     29      -7.6517      2.00000
     30      -7.6477      2.00000
     31      -7.6472      2.00000
     32      -7.4913      2.00000
     33      -6.9826      2.00000
     34      -6.9825      2.00000
     35      -6.9813      2.00000
     36      -6.1017      2.00000
     37      -6.1001      2.00000
     38      -6.1001      2.00000
     39      -5.0142      2.00000
     40      -5.0141      2.00000
     41      -5.0139      2.00000
     42      -4.9669      2.00000
     43      -4.9601      2.00000
     44      -4.9598      2.00000
     45      -4.8757      2.00000
     46      -4.8740      2.00000
     47      -4.8735      2.00000
     48      -4.4028      2.00000
     49      -4.4027      2.00000
     50      -4.3076      2.00000
     51      -4.3071      2.00000
     52      -4.0374      2.00000
     53      -4.0373      2.00000
     54      -4.0353      2.00000
     55      -4.0094      2.00000
     56      -3.4243      2.00000
     57      -3.4240      2.00000
     58      -2.9519      2.00000
     59      -2.9518      2.00000
     60      -2.9517      2.00000
     61      -2.9353      2.00000
     62      -2.9351      2.00000
     63      -2.9349      2.00000
     64      -2.5085      2.00000
     65      -0.4485      0.00000
     66      -0.4480      0.00000
     67      -0.4480      0.00000
     68      -0.0291      0.00000
     69      -0.0291      0.00000
     70      -0.0280      0.00000
     71       0.5672      0.00000
     72       0.5676      0.00000
     73       0.7853      0.00000
     74       0.7855      0.00000
     75       1.2543      0.00000
     76       1.2603      0.00000
     77       1.2605      0.00000
     78       1.6793      0.00000
     79       1.6806      0.00000
     80       1.6807      0.00000
     81       2.1281      0.00000
     82       2.5277      0.00000
     83       2.9706      0.00000
     84       3.0055      0.00000
     85       3.0569      0.00000
     86       3.0571      0.00000
     87       3.4653      0.00000
     88       3.4708      0.00000
     89       3.4713      0.00000
     90       3.4787      0.00000
     91       3.5828      0.00000
     92       3.5850      0.00000
     93       3.5857      0.00000
     94       3.6396      0.00000
     95       4.2367      0.00000
     96       4.7790      0.00000

 k-point     2 :       0.0125    0.0000    0.0000
  band No.  band energies     occupation 
      1     -20.5765      2.00000
      2     -18.2319      2.00000
      3     -18.2093      2.00000
      4     -18.2067      2.00000
      5     -18.1622      2.00000
      6     -18.1594      2.00000
      7     -18.1375      2.00000
      8     -16.4153      2.00000
      9     -15.4826      2.00000
     10     -14.7443      2.00000
     11     -14.7421      2.00000
     12     -14.7417      2.00000
     13     -14.5078      2.00000
     14     -14.5057      2.00000
     15     -14.5053      2.00000
     16     -10.2646      2.00000
     17     -10.2540      2.00000
     18     -10.2050      2.00000
     19     -10.1816      2.00000
     20     -10.1330      2.00000
     21     -10.1202      2.00000
     22      -8.3188      2.00000
     23      -7.8555      2.00000
     24      -7.8554      2.00000
     25      -7.8549      2.00000
     26      -7.7169      2.00000
     27      -7.6998      2.00000
     28      -7.6672      2.00000
     29      -7.6340      2.00000
     30      -7.6021      2.00000
     31      -7.5858      2.00000
     32      -7.4905      2.00000
     33      -6.9823      2.00000
     34      -6.9819      2.00000
     35      -6.9806      2.00000
     36      -6.1016      2.00000
     37      -6.1001      2.00000
     38      -6.1000      2.00000
     39      -5.0182      2.00000
     40      -5.0157      2.00000
     41      -5.0131      2.00000
     42      -4.9930      2.00000
     43      -4.9736      2.00000
     44      -4.9687      2.00000
     45      -4.8662      2.00000
     46      -4.8617      2.00000
     47      -4.8415      2.00000
     48      -4.4042      2.00000
     49      -4.4022      2.00000
     50      -4.3090      2.00000
     51      -4.3084      2.00000
     52      -4.0374      2.00000
     53      -4.0369      2.00000
     54      -4.0346      2.00000
     55      -4.0119      2.00000
     56      -3.4252      2.00000
     57      -3.4222      2.00000
     58      -2.9825      2.00000
     59      -2.9795      2.00000
     60      -2.9522      2.00000
     61      -2.9362      2.00000
     62      -2.9099      2.00000
     63      -2.9071      2.00000
     64      -2.5087      2.00000
     65      -0.4483      0.00000
     66      -0.4478      0.00000
     67      -0.4477      0.00000
     68      -0.0297      0.00000
     69      -0.0291      0.00000
     70      -0.0282      0.00000
     71       0.5653      0.00000
     72       0.5684      0.00000
     73       0.7826      0.00000
     74       0.7845      0.00000
     75       1.2541      0.00000
     76       1.2601      0.00000
     77       1.2607      0.00000
     78       1.6772      0.00000
     79       1.6783      0.00000
     80       1.6802      0.00000
     81       2.1291      0.00000
     82       2.5289      0.00000
     83       2.9714      0.00000
     84       3.0045      0.00000
     85       3.0559      0.00000
     86       3.0569      0.00000
     87       3.4420      0.00000
     88       3.4590      0.00000
     89       3.4682      0.00000
     90       3.4770      0.00000
     91       3.5825      0.00000
     92       3.5945      0.00000
     93       3.6110      0.00000
     94       3.6552      0.00000
     95       4.2379      0.00000
     96       4.7799      0.00000

 k-point     3 :       0.0250    0.0000    0.0000
  band No.  band energies     occupation 
      1     -20.5752      2.00000
      2     -18.2794      2.00000
      3     -18.2334      2.00000
      4     -18.2287      2.00000
      5     -18.1395      2.00000
      6     -18.1341      2.00000
      7     -18.0909      2.00000
      8     -16.4138      2.00000
      9     -15.4817      2.00000
     10     -14.7463      2.00000
     11     -14.7429      2.00000
     12     -14.7418      2.00000
     13     -14.5087      2.00000
     14     -14.5062      2.00000
     15     -14.5053      2.00000
     16     -10.3343      2.00000
     17     -10.3151      2.00000
     18     -10.2167      2.00000
     19     -10.1700      2.00000
     20     -10.0735      2.00000
     21     -10.0459      2.00000
     22      -8.3170      2.00000
     23      -7.8532      2.00000
     24      -7.8528      2.00000
     25      -7.8512      2.00000
     26      -7.7826      2.00000
     27      -7.7478      2.00000
     28      -7.6822      2.00000
     29      -7.6161      2.00000
     30      -7.5527      2.00000
     31      -7.5219      2.00000
     32      -7.4879      2.00000
     33      -6.9817      2.00000
     34      -6.9810      2.00000
     35      -6.9776      2.00000
     36      -6.1016      2.00000
     37      -6.1000      2.00000
     38      -6.0995      2.00000
     39      -5.0561      2.00000
     40      -5.0238      2.00000
     41      -5.0159      2.00000
     42      -5.0116      2.00000
     43      -4.9920      2.00000
     44      -4.9854      2.00000
     45      -4.8441      2.00000
     46      -4.8361      2.00000
     47      -4.7854      2.00000
     48      -4.4085      2.00000
     49      -4.4006      2.00000
     50      -4.3147      2.00000
     51      -4.3110      2.00000
     52      -4.0372      2.00000
     53      -4.0357      2.00000
     54      -4.0327      2.00000
     55      -4.0192      2.00000
     56      -3.4279      2.00000
     57      -3.4169      2.00000
     58      -3.0213      2.00000
     59      -3.0180      2.00000
     60      -2.9551      2.00000
     61      -2.9378      2.00000
     62      -2.8790      2.00000
     63      -2.8763      2.00000
     64      -2.5091      2.00000
     65      -0.4479      0.00000
     66      -0.4470      0.00000
     67      -0.4468      0.00000
     68      -0.0319      0.00000
     69      -0.0291      0.00000
     70      -0.0283      0.00000
     71       0.5595      0.00000
     72       0.5709      0.00000
     73       0.7739      0.00000
     74       0.7820      0.00000
     75       1.2529      0.00000
     76       1.2596      0.00000
     77       1.2617      0.00000
     78       1.6702      0.00000
     79       1.6715      0.00000
     80       1.6796      0.00000
     81       2.1321      0.00000
     82       2.5326      0.00000
     83       2.9739      0.00000
     84       3.0009      0.00000
     85       3.0513      0.00000
     86       3.0568      0.00000
     87       3.3979      0.00000
     88       3.4329      0.00000
     89       3.4616      0.00000
     90       3.4766      0.00000
     91       3.5869      0.00000
     92       3.6137      0.00000
     93       3.6490      0.00000
     94       3.7031      0.00000
     95       4.2414      0.00000
     96       4.7821      0.00000

 k-point     4 :       0.0375    0.0000    0.0000
  band No.  band energies     occupation 
      1     -20.5731      2.00000
      2     -18.3271      2.00000
      3     -18.2570      2.00000
      4     -18.2504      2.00000
      5     -18.1167      2.00000
      6     -18.1083      2.00000
      7     -18.0447      2.00000
      8     -16.4113      2.00000
      9     -15.4801      2.00000
     10     -14.7504      2.00000
     11     -14.7434      2.00000
     12     -14.7421      2.00000
     13     -14.5107      2.00000
     14     -14.5066      2.00000
     15     -14.5053      2.00000
     16     -10.4024      2.00000
     17     -10.3764      2.00000
     18     -10.2286      2.00000
     19     -10.1584      2.00000
     20     -10.0150      2.00000
     21      -9.9701      2.00000
     22      -8.3141      2.00000
     23      -7.8557      2.00000
     24      -7.8486      2.00000
     25      -7.8455      2.00000
     26      -7.8418      2.00000
     27      -7.7949      2.00000
     28      -7.6959      2.00000
     29      -7.5975      2.00000
     30      -7.5038      2.00000
     31      -7.4855      2.00000
     32      -7.4560      2.00000
     33      -6.9806      2.00000
     34      -6.9799      2.00000
     35      -6.9720      2.00000
     36      -6.1020      2.00000
     37      -6.0994      2.00000
     38      -6.0987      2.00000
     39      -5.1158      2.00000
     40      -5.0412      2.00000
     41      -5.0313      2.00000
     42      -5.0113      2.00000
     43      -5.0034      2.00000
     44      -4.9976      2.00000
     45      -4.8168      2.00000
     46      -4.8053      2.00000
     47      -4.7258      2.00000
     48      -4.4155      2.00000
     49      -4.3980      2.00000
     50      -4.3243      2.00000
     51      -4.3154      2.00000
     52      -4.0367      2.00000
     53      -4.0341      2.00000
     54      -4.0326      2.00000
     55      -4.0281      2.00000
     56      -3.4325      2.00000
     57      -3.4083      2.00000
     58      -3.0629      2.00000
     59      -3.0594      2.00000
     60      -2.9600      2.00000
     61      -2.9404      2.00000
     62      -2.8503      2.00000
     63      -2.8477      2.00000
     64      -2.5099      2.00000
     65      -0.4475      0.00000
     66      -0.4456      0.00000
[...]
     33      -6.9825      2.00000
     34      -6.9820      2.00000
     35      -6.9810      2.00000
     36      -6.1016      2.00000
     37      -6.1001      2.00000
     38      -6.1000      2.00000
     39      -5.0165      2.00000
     40      -5.0149      2.00000
     41      -5.0133      2.00000
     42      -4.9804      2.00000
     43      -4.9766      2.00000
     44      -4.9611      2.00000
     45      -4.8744      2.00000
     46      -4.8589      2.00000
     47      -4.8559      2.00000
     48      -4.4036      2.00000
     49      -4.4025      2.00000
     50      -4.3085      2.00000
     51      -4.3078      2.00000
     52      -4.0373      2.00000
     53      -4.0371      2.00000
     54      -4.0349      2.00000
     55      -4.0109      2.00000
     56      -3.4247      2.00000
     57      -3.4231      2.00000
     58      -2.9770      2.00000
     59      -2.9629      2.00000
     60      -2.9601      2.00000
     61      -2.9279      2.00000
     62      -2.9251      2.00000
     63      -2.9117      2.00000
     64      -2.5086      2.00000
     65      -0.4484      0.00000
     66      -0.4479      0.00000
     67      -0.4478      0.00000
     68      -0.0294      0.00000
     69      -0.0291      0.00000
     70      -0.0281      0.00000
     71       0.5663      0.00000
     72       0.5679      0.00000
     73       0.7837      0.00000
     74       0.7849      0.00000
     75       1.2542      0.00000
     76       1.2602      0.00000
     77       1.2606      0.00000
     78       1.6780      0.00000
     79       1.6796      0.00000
     80       1.6801      0.00000
     81       2.1287      0.00000
     82       2.5284      0.00000
     83       2.9711      0.00000
     84       3.0049      0.00000
     85       3.0563      0.00000
     86       3.0569      0.00000
     87       3.4513      0.00000
     88       3.4625      0.00000
     89       3.4690      0.00000
     90       3.4782      0.00000
     91       3.5821      0.00000
     92       3.5905      0.00000
     93       3.6030      0.00000
     94       3.6487      0.00000
     95       4.2374      0.00000
     96       4.7794      0.00000

 k-point   130 :       0.0000    0.0000    0.0000
  band No.  band energies     occupation 
      1     -20.5769      2.00000
      2     -18.1868      2.00000
      3     -18.1861      2.00000
      4     -18.1854      2.00000
      5     -18.1841      2.00000
      6     -18.1831      2.00000
      7     -18.1820      2.00000
      8     -16.4158      2.00000
      9     -15.4829      2.00000
     10     -14.7438      2.00000
     11     -14.7416      2.00000
     12     -14.7416      2.00000
     13     -14.5077      2.00000
     14     -14.5054      2.00000
     15     -14.5053      2.00000
     16     -10.1951      2.00000
     17     -10.1947      2.00000
     18     -10.1944      2.00000
     19     -10.1922      2.00000
     20     -10.1919      2.00000
     21     -10.1911      2.00000
     22      -8.3194      2.00000
     23      -7.8563      2.00000
     24      -7.8563      2.00000
     25      -7.8560      2.00000
     26      -7.6535      2.00000
     27      -7.6534      2.00000
     28      -7.6532      2.00000
     29      -7.6517      2.00000
     30      -7.6477      2.00000
     31      -7.6472      2.00000
     32      -7.4913      2.00000
     33      -6.9826      2.00000
     34      -6.9825      2.00000
     35      -6.9813      2.00000
     36      -6.1017      2.00000
     37      -6.1001      2.00000
     38      -6.1001      2.00000
     39      -5.0142      2.00000
     40      -5.0141      2.00000
     41      -5.0139      2.00000
     42      -4.9669      2.00000
     43      -4.9601      2.00000
     44      -4.9598      2.00000
     45      -4.8757      2.00000
     46      -4.8740      2.00000
     47      -4.8735      2.00000
     48      -4.4028      2.00000
     49      -4.4027      2.00000
     50      -4.3076      2.00000
     51      -4.3071      2.00000
     52      -4.0374      2.00000
     53      -4.0373      2.00000
     54      -4.0353      2.00000
     55      -4.0094      2.00000
     56      -3.4243      2.00000
     57      -3.4240      2.00000
     58      -2.9519      2.00000
     59      -2.9518      2.00000
     60      -2.9517      2.00000
     61      -2.9353      2.00000
     62      -2.9351      2.00000
     63      -2.9349      2.00000
     64      -2.5085      2.00000
     65      -0.4485      0.00000
     66      -0.4480      0.00000
     67      -0.4480      0.00000
     68      -0.0291      0.00000
     69      -0.0291      0.00000
     70      -0.0280      0.00000
     71       0.5672      0.00000
     72       0.5676      0.00000
     73       0.7853      0.00000
     74       0.7855      0.00000
     75       1.2543      0.00000
     76       1.2603      0.00000
     77       1.2605      0.00000
     78       1.6793      0.00000
     79       1.6806      0.00000
     80       1.6807      0.00000
     81       2.1281      0.00000
     82       2.5277      0.00000
     83       2.9706      0.00000
     84       3.0055      0.00000
     85       3.0569      0.00000
     86       3.0571      0.00000
     87       3.4653      0.00000
     88       3.4708      0.00000
     89       3.4712      0.00000
     90       3.4787      0.00000
     91       3.5828      0.00000
     92       3.5850      0.00000
     93       3.5857      0.00000
     94       3.6396      0.00000
     95       4.2367      0.00000
     96       4.7795      0.00000


--------------------------------------------------------------------------------------------------------


 soft charge-density along one line, spin component           1
         0         1         2         3         4         5         6         7         8         9
 total charge-density along one line
 
 pseudopotential strength for first ion, spin component:           1
  6.713  10.242   0.000   0.000   0.000   0.000   0.000   0.000
 10.242  15.621   0.000   0.000   0.000  -0.000   0.000   0.000
  0.000   0.000  -2.308  -0.000   0.000  -3.960  -0.000   0.000
  0.000   0.000  -0.000  -2.306   0.000  -0.000  -3.952  -0.000
  0.000   0.000   0.000   0.000  -2.308   0.000  -0.000  -3.960
  0.000  -0.000  -3.960  -0.000   0.000  -6.596  -0.000   0.000
  0.000   0.000  -0.000  -3.952  -0.000  -0.000  -6.577  -0.000
  0.000   0.000   0.000  -0.000  -3.960   0.000  -0.000  -6.596
 total augmentation occupancy for first ion, spin component:           1
  2.000   0.000   0.000   0.000   0.000   0.000   0.000   0.000
  0.000   0.000   0.000   0.000   0.000   0.000   0.000   0.000
  0.000   0.000   0.333   0.000   0.000   0.000   0.000   0.000
  0.000   0.000   0.000   0.333   0.000   0.000   0.000   0.000
  0.000   0.000   0.000   0.000   0.333   0.000   0.000   0.000
  0.000   0.000   0.000   0.000   0.000   0.000   0.000   0.000
  0.000   0.000   0.000   0.000   0.000   0.000   0.000   0.000
  0.000   0.000   0.000   0.000   0.000   0.000   0.000   0.000


------------------------ aborting loop because EDIFF is reached ----------------------------------------


 


 total charge     
 
# of ion     s       p       d       tot
----------------------------------------
  1        0.741   1.416   0.000   2.157
  2        0.741   1.414   0.000   2.155
  3        0.741   1.417   0.000   2.158
  4        0.741   1.416   0.000   2.157
  5        0.741   1.416   0.000   2.157
  6        0.741   1.416   0.000   2.157
  7        0.741   1.416   0.000   2.157
  8        1.226   2.782   0.000   4.007
  9        1.225   2.781   0.000   4.007
 10        1.225   2.781   0.000   4.007
 11        1.226   2.782   0.000   4.007
 12        1.226   2.782   0.000   4.007
 13        1.225   2.780   0.000   4.006
 14        1.226   2.782   0.000   4.007
 15        0.375   0.515   4.341   5.232
 16        0.376   0.515   4.341   5.232
 17        0.376   0.515   4.341   5.232
 18        0.376   0.516   4.341   5.232
 19        1.476   2.322   0.058   3.857
 20        1.477   2.323   0.059   3.860
 21        1.476   2.322   0.058   3.857
 22        1.478   2.323   0.059   3.860
 23        1.476   2.322   0.058   3.857
 24        1.478   2.323   0.059   3.860
 25        1.476   2.322   0.058   3.857
 26        1.478   2.323   0.059   3.860
------------------------------------------------
tot       27.084  50.025  17.832  94.941
 
    CHARGE:  cpu time    7.5738: real time    7.5826
    FORLOC:  cpu time    0.0550: real time    0.0550
    FORNL :  cpu time  170.7190: real time  170.7745
    STRESS:  cpu time  481.9727: real time  482.2233
    FORCOR:  cpu time    0.5089: real time    0.5086
    FORHAR:  cpu time    0.1720: real time    0.1716
    OFIELD:  cpu time    0.0050: real time    0.0054

  FORCE on cell =-STRESS in cart. coord.  units (eV):
  Direction    XX          YY          ZZ          XY          YZ          ZX
  --------------------------------------------------------------------------------------
  Alpha Z   137.63011   137.63011   137.63011
  Ewald   44798.09303 44798.10294-48865.24930     0.04452    -0.00616     0.00676
  Hartree 45277.58410 45275.51884-44954.97634    -0.83064     0.00223     0.00171
  E(xc)    -510.81658  -510.02297  -520.28954     0.24679    -0.00155     0.00061
  Local  -91636.49613-91622.87175 92139.50910     5.36629    -0.02225     0.00261
  n-local   149.70703   144.69546   168.19680    -2.70407     0.01101    -0.01287
  augment    11.69248    12.92363     9.92156     0.59336    -0.00323     0.00316
  Kinetic  1773.60782  1762.84277  1886.21664    -3.96621     0.02920    -0.01333
  Fock        0.00000     0.00000     0.00000     0.00000     0.00000     0.00000
  -------------------------------------------------------------------------------------
  Total       1.00188    -1.18097     0.95902    -1.24996     0.00925    -0.01135
  in kB       1.39874    -1.64877     1.33891    -1.74509     0.01292    -0.01585
  external pressure =        0.36 kB  Pullay stress =        0.00 kB


 VOLUME and BASIS-vectors are now :
 -----------------------------------------------------------------------------
  energy-cutoff  :      500.00
  volume of cell :     1147.60
      direct lattice vectors                 reciprocal lattice vectors
     6.646127224  0.000000000  0.000000000     0.150463566 -0.086870193  0.000000000
     3.323063995  5.755714791  0.000000000     0.000000000  0.173740367  0.000000000
     0.000000000  0.000000000 30.000000000     0.000000000  0.000000000  0.033333333

  length of vectors
     6.646127224  6.646127224 30.000000000     0.173740367  0.173740367  0.033333333


 FORCES acting on ions
    electron-ion (+dipol)            ewald-force                    non-local-force                 convergence-correction
 -----------------------------------------------------------------------------------------------
   -.116E+00 -.326E+00 0.336E+03   0.525E-01 0.157E+00 -.336E+03   0.387E-01 -.726E-01 -.154E-01   0.718E-02 0.191E-01 0.168E-01
   -.529E-01 -.202E+00 0.335E+03   -.996E-04 0.199E-01 -.335E+03   0.357E-01 -.759E-01 0.250E-01   0.720E-02 0.297E-01 0.112E-01
   0.883E-01 -.169E+00 0.336E+03   -.132E+00 -.760E-02 -.336E+03   0.318E-01 -.738E-01 -.170E-01   0.332E-02 0.218E-01 0.135E-01
   -.124E+00 -.507E-01 0.336E+03   0.634E-01 -.112E+00 -.336E+03   0.331E-01 -.808E-01 -.112E-01   0.915E-02 0.206E-01 0.931E-02
   -.176E+00 -.581E-02 0.335E+03   0.107E+00 -.161E+00 -.335E+03   0.449E-01 -.773E-01 0.234E-02   0.877E-02 0.192E-01 0.108E-01
   -.125E+00 -.357E+00 0.335E+03   0.726E-01 0.161E+00 -.335E+03   0.303E-01 -.695E-01 -.186E-02   0.736E-02 0.296E-01 0.164E-01
   0.119E+00 -.128E+00 0.335E+03   -.171E+00 -.359E-01 -.335E+03   0.299E-01 -.871E-01 -.338E-03   0.108E-01 0.197E-01 0.169E-01
   0.146E+00 0.409E+00 0.559E+03   -.888E-01 -.133E+00 -.559E+03   -.278E-01 0.585E-01 -.881E-01   -.238E-01 -.103E+00 0.207E-01
   0.174E+00 0.124E+00 0.559E+03   -.940E-01 0.131E+00 -.559E+03   -.484E-01 0.812E-01 -.672E-01   -.193E-01 -.985E-01 0.274E-01
   -.927E-01 0.188E+00 0.559E+03   0.143E+00 0.431E-01 -.559E+03   -.173E-01 0.878E-01 -.812E-01   -.177E-01 -.916E-01 0.138E-01
   -.240E+00 0.554E+00 0.563E+03   0.310E+00 -.297E+00 -.563E+03   -.254E-01 0.731E-01 0.310E-01   -.289E-01 -.100E+00 0.981E-02
   0.498E+00 0.372E+00 0.563E+03   -.413E+00 -.106E+00 -.563E+03   -.418E-01 0.800E-01 0.538E-01   -.301E-01 -.105E+00 0.169E-01
   0.637E-01 0.273E+00 0.557E+03   0.121E-01 -.108E-01 -.557E+03   -.330E-01 0.759E-01 -.151E+00   -.275E-01 -.105E+00 0.309E-01
   -.572E-01 -.113E+00 0.563E+03   0.138E+00 0.351E+00 -.563E+03   -.314E-01 0.819E-01 0.537E-01   -.275E-01 -.968E-01 0.195E-01
   -.269E+00 0.417E+00 -.523E+03   -.639E-01 -.451E-01 0.523E+03   -.267E-01 0.319E-01 -.146E-01   0.155E+00 -.173E+00 -.219E-02
   -.392E+00 0.404E+00 -.523E+03   0.620E-01 -.251E-01 0.523E+03   -.223E-01 0.321E-01 -.141E-01   0.152E+00 -.175E+00 -.129E-02
   -.333E+00 0.300E+00 -.523E+03   0.778E-03 0.708E-01 0.523E+03   -.205E-01 0.388E-01 -.563E-02   0.151E+00 -.173E+00 0.173E-02
   -.330E+00 0.373E+00 -.523E+03   -.665E-02 -.138E-02 0.523E+03   -.238E-01 0.321E-01 0.180E-02   0.156E+00 -.172E+00 -.141E-02
   0.326E-02 -.301E-01 -.977E+03   0.451E-02 -.124E-02 0.979E+03   0.152E+00 -.166E+00 -.265E+01   -.538E-01 0.742E-01 -.239E+00
   -.126E-05 -.400E-01 -.690E+02   0.156E-01 -.549E-02 0.662E+02   0.149E+00 -.149E+00 0.275E+01   -.553E-01 0.724E-01 0.229E+00
   -.335E-03 -.493E-01 -.977E+03   0.166E-02 0.202E-01 0.980E+03   0.153E+00 -.167E+00 -.266E+01   -.479E-01 0.745E-01 -.239E+00
   0.877E-01 0.655E-01 -.690E+02   -.710E-01 -.994E-01 0.661E+02   0.126E+00 -.149E+00 0.277E+01   -.502E-01 0.769E-01 0.226E+00
   -.147E-01 -.194E-01 -.977E+03   0.176E-01 -.953E-02 0.980E+03   0.155E+00 -.167E+00 -.266E+01   -.501E-01 0.723E-01 -.240E+00
   0.827E-01 -.165E+00 -.690E+02   -.519E-01 0.976E-01 0.661E+02   0.150E+00 -.145E+00 0.277E+01   -.506E-01 0.823E-01 0.229E+00
   0.174E-01 -.159E-01 -.977E+03   -.177E-01 -.111E-01 0.980E+03   0.154E+00 -.166E+00 -.266E+01   -.500E-01 0.697E-01 -.241E+00
   -.883E-01 -.722E-01 -.690E+02   0.109E+00 0.978E-02 0.661E+02   0.138E+00 -.159E+00 0.278E+01   -.600E-01 0.771E-01 0.229E+00
 -----------------------------------------------------------------------------------------------
   -.113E+01 0.174E+01 -.324E+00   0.394E-13 0.276E-13 0.161E-11   0.110E+01 -.113E+01 0.153E+00   0.754E-01 -.633E+00 0.185E+00
 
 
 POSITION                                       TOTAL-FORCE (eV/Angst)
 -----------------------------------------------------------------------------------
      1.42389      0.27401      0.02610        -0.019531     -0.220904     -0.048716
      3.32272      1.91906      0.03338        -0.011931     -0.227025     -0.019441
      5.69677      1.09720      0.02610        -0.009966     -0.227246     -0.045237
      2.84759      4.38610      0.02640        -0.019779     -0.222176     -0.045056
      5.22137      3.56371      0.03075        -0.016674     -0.223895     -0.019663
      7.59530      2.74111      0.03073        -0.017027     -0.234075     -0.028960
      7.12075      5.20841      0.03076        -0.012907     -0.229704     -0.030868
      2.84815      0.54834      0.03095         0.003370      0.232058     -0.045004
      2.37290      3.01552      0.03096         0.010798      0.239141     -0.040822
      4.74718      2.19348      0.03096         0.013626      0.228710     -0.039997
      7.12121      1.37044      0.02280         0.014172      0.231606     -0.066355
      4.27140      4.65954      0.02280         0.010396      0.241731     -0.059828
      6.64581      3.83779      0.03487         0.013478      0.234011     -0.035668
      8.54473      5.48320      0.02280         0.019777      0.224300     -0.058457
      1.66157      0.95966      5.16021        -0.206003      0.231572      0.004414
      4.98439      0.95908      5.16030        -0.202028      0.237685      0.001433
      3.32335      3.83700      5.16024        -0.203354      0.237688      0.010183
      6.64609      3.83717      5.16171        -0.206686      0.232604      0.009766
      3.32301      1.91861      6.82821         0.104461     -0.122617      0.023837
      3.32304      1.91857      3.49101         0.106950     -0.120993      0.112742
      6.64579      1.91803      6.82899         0.104570     -0.120292      0.020435
      6.64620      1.91920      3.49125         0.091099     -0.104651      0.122312
      4.98419      4.79704      6.82899         0.105775     -0.122888      0.020268
      4.98508      4.79613      3.49128         0.128794     -0.129177      0.120592
      8.30827      4.79647      6.82899         0.101415     -0.122521      0.020969
      8.30714      4.79604      3.49134         0.097204     -0.142945      0.117121
 -----------------------------------------------------------------------------------
    total drift:                                0.047437     -0.027747      0.013419


--------------------------------------------------------------------------------------------------------



  FREE ENERGIE OF THE ION-ELECTRON SYSTEM (eV)
  ---------------------------------------------------
  free  energy   TOTEN  =      -202.69377632 eV

  energy  without entropy=     -202.69377632  energy(sigma->0) =     -202.69377632
 


--------------------------------------------------------------------------------------------------------


    POTLOK:  cpu time    0.5009: real time    0.5014


--------------------------------------------------------------------------------------------------------


     LOOP+:  cpu time 6345.9723: real time 6349.6395
    4ORBIT:  cpu time    0.0000: real time    0.0000
 


 total charge     
 
# of ion     s       p       d       tot
----------------------------------------
  1        0.741   1.416   0.000   2.157
  2        0.741   1.414   0.000   2.155
  3        0.741   1.417   0.000   2.158
  4        0.741   1.416   0.000   2.157
  5        0.741   1.416   0.000   2.157
  6        0.741   1.416   0.000   2.157
  7        0.741   1.416   0.000   2.157
  8        1.226   2.782   0.000   4.007
  9        1.225   2.781   0.000   4.007
 10        1.225   2.781   0.000   4.007
 11        1.226   2.782   0.000   4.007
 12        1.226   2.782   0.000   4.007
 13        1.225   2.780   0.000   4.006
 14        1.226   2.782   0.000   4.007
 15        0.375   0.515   4.341   5.232
 16        0.376   0.515   4.341   5.232
 17        0.376   0.515   4.341   5.232
 18        0.376   0.516   4.341   5.232
 19        1.476   2.322   0.058   3.857
 20        1.477   2.323   0.059   3.860
 21        1.476   2.322   0.058   3.857
 22        1.478   2.323   0.059   3.860
 23        1.476   2.322   0.058   3.857
 24        1.478   2.323   0.059   3.860
 25        1.476   2.322   0.058   3.857
 26        1.478   2.323   0.059   3.860
------------------------------------------------
tot       27.084  50.025  17.832  94.941
 

 total amount of memory used by VASP on root node  1348424. kBytes
========================================================================

   base      :      30000. kBytes
   nonl-proj :     551919. kBytes
   fftplans  :       9051. kBytes
   grid      :      17931. kBytes
   one-center:        108. kBytes
   wavefun   :     739415. kBytes
 
  
  
 General timing and accounting informations for this job:
 ========================================================
  
                  Total CPU time used (sec):     6468.815
                            User time (sec):     6459.705
                          System time (sec):        9.111
                         Elapsed time (sec):     6473.172
  
                   Maximum memory used (kb):     1392792.
                   Average memory used (kb):           0.
  
                          Minor page faults:        28207
                          Major page faults:           37
                 Voluntary context switches:          907
