 vasp.5.4.1 05Feb16 (build Aug 24 2016 16:09:45) complex                        
  
 executed on           IFC91_ompi date 2016.09.10  04:40:53
 running on  240 total cores
 distrk:  each k-point on   12 cores,   20 groups
 distr:  one band on NCORES_PER_BAND=   1 cores,   12 groups


--------------------------------------------------------------------------------------------------------


 INCAR:
 POTCAR:    PAW_PBE P 06Sep2000                   
 POTCAR:    PAW_PBE Mo 08Apr2002                  
 POTCAR:    PAW_PBE Se 06Sep2000                  

 ----------------------------------------------------------------------------- 
|                                                                             |
|           W    W    AA    RRRRR   N    N  II  N    N   GGGG   !!!           |
|           W    W   A  A   R    R  NN   N  II  NN   N  G    G  !!!           |
|           W    W  A    A  R    R  N N  N  II  N N  N  G       !!!           |
|           W WW W  AAAAAA  RRRRR   N  N N  II  N  N N  G  GGG   !            |
|           WW  WW  A    A  R   R   N   NN  II  N   NN  G    G                |
|           W    W  A    A  R    R  N    N  II  N    N   GGGG   !!!           |
|                                                                             |
|      For optimal performance we recommend to set                            |
|        NCORE= 4 - approx SQRT( number of cores)                             |
|      NCORE specifies how many cores store one orbital (NPAR=cpu/NCORE).     |
|      This setting can  greatly improve the performance of VASP for DFT.     |
|      The default, NPAR=number of cores might be grossly inefficient         |
|      on modern multi-core architectures or massively parallel machines.     |
|      Do your own testing !!!!                                               |
|      Unfortunately you need to use the default for GW and RPA calculations. |
|      (for HF NCORE is supported but not extensively tested yet)             |
|                                                                             |
 ----------------------------------------------------------------------------- 


 ----------------------------------------------------------------------------- 
|                                                                             |
|           W    W    AA    RRRRR   N    N  II  N    N   GGGG   !!!           |
|           W    W   A  A   R    R  NN   N  II  NN   N  G    G  !!!           |
|           W    W  A    A  R    R  N N  N  II  N N  N  G       !!!           |
|           W WW W  AAAAAA  RRRRR   N  N N  II  N  N N  G  GGG   !            |
|           WW  WW  A    A  R   R   N   NN  II  N   NN  G    G                |
|           W    W  A    A  R    R  N    N  II  N    N   GGGG   !!!           |
|                                                                             |
|      You have enabled k-point parallelism (KPAR>1).                         |
|      This developmental code was originally  written by Paul Kent at ORNL,  |
|      and carefully double checked in Vienna.                                |
|      GW as well as linear response parallelism added by Martijn Marsman     |
|      and Georg Kresse.                                                      |
|      Carefully verify results versus KPAR=1.                                |
|      Report problems to Paul Kent and Vienna.                               |
|                                                                             |
 ----------------------------------------------------------------------------- 

 POTCAR:    PAW_PBE P 06Sep2000                   
   VRHFIN =P : s2p3                                                             
   LEXCH  = PE                                                                  
   EATOM  =   176.0430 eV,   12.9388 Ry                                         
                                                                                
   TITEL  = PAW_PBE P 06Sep2000                                                 
   LULTRA =        F    use ultrasoft PP ?                                      
   IUNSCR =        1    unscreen: 0-lin 1-nonlin 2-no                           
   RPACOR =    1.500    partial core radius                                     
   POMASS =   30.974; ZVAL   =    5.000    mass and valenz                      
   RCORE  =    1.900    outmost cutoff radius                                   
   RWIGS  =    2.330; RWIGS  =    1.233    wigner-seitz radius (au A)           
   ENMAX  =  255.040; ENMIN  =  191.280 eV                                      
   ICORE  =        2    local potential                                         
   LCOR   =        T    correct aug charges                                     
   LPAW   =        T    paw PP                                                  
   EAUG   =  342.924                                                            
   DEXC   =    0.000                                                            
   RMAX   =    1.935    core radius for proj-oper                               
   RAUG   =    1.300    factor for augmentation sphere                          
   RDEP   =    1.931    radius for radial grids                                 
   RDEPT  =    1.794    core radius for aug-charge                              
                                                                                
   Atomic configuration                                                         
    6 entries                                                                   
     n  l   j            E        occ.                                          
     1  0  0.50     -2084.0982   2.0000                                         
     2  0  0.50      -173.9859   2.0000                                         
     2  1  1.50      -124.4865   6.0000                                         
     3  0  0.50       -13.9692   2.0000                                         
     3  1  0.50        -5.5067   3.0000                                         
     3  2  1.50        -5.4423   0.0000                                         
   Description                                                                  
     l       E           TYP  RCUT    TYP  RCUT                                 
     0    -13.9691527     23  1.900                                             
     0    -11.7794650     23  1.900                                             
     1     -5.5066937     23  1.900                                             
     1     -0.2556953     23  1.900                                             
     2     -5.4423304     23  1.900                                             
  local pseudopotential read in
  partial core-charges read in
  partial kinetic energy density read in
  atomic valenz-charges read in
  non local Contribution for L=           0  read in
    real space projection operators read in
  non local Contribution for L=           0  read in
    real space projection operators read in
  non local Contribution for L=           1  read in
    real space projection operators read in
  non local Contribution for L=           1  read in
    real space projection operators read in
    PAW grid and wavefunctions read in
 
   number of l-projection  operators is LMAX  =           4
   number of lm-projection operators is LMMAX =           8
 
 POTCAR:    PAW_PBE Mo 08Apr2002                  
   VRHFIN =Mo: 4p5s4d                                                           
   LEXCH  = PE                                                                  
   EATOM  =   217.5176 eV,   15.9871 Ry                                         
                                                                                
   TITEL  = PAW_PBE Mo 08Apr2002                                                
   LULTRA =        F    use ultrasoft PP ?                                      
   IUNSCR =        1    unscreen: 0-lin 1-nonlin 2-no                           
   RPACOR =    2.200    partial core radius                                     
   POMASS =   95.940; ZVAL   =    6.000    mass and valenz                      
   RCORE  =    2.750    outmost cutoff radius                                   
   RWIGS  =    2.750; RWIGS  =    1.455    wigner-seitz radius (au A)           
   ENMAX  =  224.584; ENMIN  =  168.438 eV                                      
   RCLOC  =    2.111    cutoff for local pot                                    
   LCOR   =        T    correct aug charges                                     
   LPAW   =        T    paw PP                                                  
   EAUG   =  345.278                                                            
   DEXC   =    0.000                                                            
   RMAX   =    2.821    core radius for proj-oper                               
   RAUG   =    1.300    factor for augmentation sphere                          
   RDEP   =    2.815    radius for radial grids                                 
   RDEPT  =    2.211    core radius for aug-charge                              
                                                                                
   Atomic configuration                                                         
   12 entries                                                                   
     n  l   j            E        occ.                                          
     1  0  0.50    -19819.0341   2.0000                                         
     2  0  0.50     -2799.0127   2.0000                                         
     2  1  1.50     -2502.0276   6.0000                                         
     3  0  0.50      -476.4448   2.0000                                         
     3  1  1.50      -379.1496   6.0000                                         
     3  2  2.50      -220.9367  10.0000                                         
     4  0  0.50       -64.3378   2.0000                                         
     4  1  1.50       -38.4773   6.0000                                         
     4  2  2.50        -3.7535   5.0000                                         
     5  0  0.50        -4.0862   1.0000                                         
     5  1  0.50        -2.7701   0.0000                                         
     4  3  2.50        -1.3606   0.0000                                         
   Description                                                                  
     l       E           TYP  RCUT    TYP  RCUT                                 
     2     -3.7534765     23  2.500                                             
     2     -5.1140591     23  2.500                                             
     0     -4.0861560     23  2.600                                             
     0     13.6058260     23  2.600                                             
     1      5.4423304     23  2.750                                             
     1     27.2116520     23  2.750                                             
  local pseudopotential read in
  partial core-charges read in
  partial kinetic energy density read in
  atomic valenz-charges read in
  non local Contribution for L=           2  read in
    real space projection operators read in
  non local Contribution for L=           2  read in
    real space projection operators read in
  non local Contribution for L=           0  read in
    real space projection operators read in
  non local Contribution for L=           0  read in
    real space projection operators read in
  non local Contribution for L=           1  read in
    real space projection operators read in
  non local Contribution for L=           1  read in
    real space projection operators read in
    PAW grid and wavefunctions read in
 
   number of l-projection  operators is LMAX  =           6
   number of lm-projection operators is LMMAX =          18
 
 POTCAR:    PAW_PBE Se 06Sep2000                  
   VRHFIN =Se: s2p4                                                             
   LEXCH  = PE                                                                  
   EATOM  =   257.1286 eV,   18.8984 Ry                                         
                                                                                
   TITEL  = PAW_PBE Se 06Sep2000                                                
   LULTRA =        F    use ultrasoft PP ?                                      
   IUNSCR =        1    unscreen: 0-lin 1-nonlin 2-no                           
   RPACOR =    1.900    partial core radius                                     
   POMASS =   78.960; ZVAL   =    6.000    mass and valenz                      
   RCORE  =    2.100    outmost cutoff radius                                   
   RWIGS  =    2.200; RWIGS  =    1.164    wigner-seitz radius (au A)           
   ENMAX  =  211.555; ENMIN  =  158.666 eV                                      
   ICORE  =        3    local potential                                         
   LCOR   =        T    correct aug charges                                     
   LPAW   =        T    paw PP                                                  
   EAUG   =  446.842                                                            
   DEXC   =    0.000                                                            
   RMAX   =    2.147    core radius for proj-oper                               
   RAUG   =    1.300    factor for augmentation sphere                          
   RDEP   =    2.177    radius for radial grids                                 
   RDEPT  =    1.928    core radius for aug-charge                              
                                                                                
   Atomic configuration                                                         
   10 entries                                                                   
     n  l   j            E        occ.                                          
     1  0  0.50    -12503.4787   2.0000                                         
     2  0  0.50     -1606.9547   2.0000                                         
     2  1  1.50     -1413.3140   6.0000                                         
     3  0  0.50      -213.4885   2.0000                                         
     3  1  1.50      -152.9538   6.0000                                         
     3  2  2.50       -53.1221  10.0000                                         
     4  0  0.50       -17.2865   2.0000                                         
     4  1  0.50        -6.5110   4.0000                                         
     4  2  2.50        -6.8029   0.0000                                         
     4  3  2.50        -6.8029   0.0000                                         
   Description                                                                  
     l       E           TYP  RCUT    TYP  RCUT                                 
     0    -17.2865377     23  2.100                                             
     0    -15.3094411     23  2.100                                             
     1     -6.5110275     23  2.100                                             
     1     -0.0695192     23  2.100                                             
     2     -6.8029130     23  2.100                                             
     3     -1.3605826      7  2.100                                             
  local pseudopotential read in
  partial core-charges read in
  partial kinetic energy density read in
  atomic valenz-charges read in
  non local Contribution for L=           0  read in
    real space projection operators read in
  non local Contribution for L=           0  read in
    real space projection operators read in
  non local Contribution for L=           1  read in
    real space projection operators read in
  non local Contribution for L=           1  read in
    real space projection operators read in
  non local Contribution for L=           2  read in
    real space projection operators read in
    PAW grid and wavefunctions read in
 
   number of l-projection  operators is LMAX  =           5
   number of lm-projection operators is LMMAX =          13
 

 ----------------------------------------------------------------------------- 
|                                                                             |
|  ADVICE TO THIS USER RUNNING 'VASP/VAMP'   (HEAR YOUR MASTER'S VOICE ...):  |
|                                                                             |
|      You have a (more or less) 'large supercell' and for larger cells       |
|      it might be more efficient to use real space projection opertators     |
|      So try LREAL= Auto  in the INCAR   file.                               |
|      Mind: At the moment your POTCAR file does not contain real space       |
|       projectors, and has to be modified,  BUT if you                       |
|      want to do an extremely  accurate calculation you might also keep the  |
|      reciprocal projection scheme          (i.e. LREAL=.FALSE.)             |
|                                                                             |
 ----------------------------------------------------------------------------- 

  PAW_PBE P 06Sep2000                   :
 energy of atom  1       EATOM= -176.0430
 kinetic energy error for atom=    0.0013 (will be added to EATOM!!)
  PAW_PBE Mo 08Apr2002                  :
 energy of atom  2       EATOM= -217.5176
 kinetic energy error for atom=    0.0017 (will be added to EATOM!!)
  PAW_PBE Se 06Sep2000                  :
 energy of atom  3       EATOM= -257.1286
 kinetic energy error for atom=    0.0008 (will be added to EATOM!!)
 
 
 POSCAR: MoSe2 full optimized                    
  positions in cartesian coordinates
  No initial velocities read in
 exchange correlation table for  LEXCH =        8
   RHO(1)=    0.500       N(1)  =     2000
   RHO(2)=  100.500       N(2)  =     4000
 


--------------------------------------------------------------------------------------------------------


 ion  position               nearest neighbor table
   1  0.001  0.500  0.004-  20 2.23  20 2.23   6 2.27
   2  0.202  0.500  0.015-  16 2.22  16 2.22   7 2.27
   3  0.400  0.500  0.016-  17 2.23  17 2.23   8 2.26
   4  0.599  0.500  0.014-  18 2.22  18 2.22   9 2.27
   5  0.797  0.500  0.006-  19 2.23  19 2.23  10 2.26
   6  0.029  0.500  0.071-  11 2.23  11 2.23   1 2.27
   7  0.233  0.500  0.080-  12 2.24  12 2.24   2 2.27
   8  0.435  0.500  0.081-  13 2.24  13 2.24   3 2.26
   9  0.638  0.500  0.078-  14 2.24  14 2.24   4 2.27
  10  0.836  0.500  0.069-  15 2.23  15 2.23   5 2.26
  11  0.095  0.000  0.075-   6 2.23   6 2.23  16 2.26
  12  0.299  0.000  0.081-   7 2.24   7 2.24  17 2.27
  13  0.501  0.000  0.081-   8 2.24   8 2.24  18 2.26
  14  0.704  0.000  0.075-   9 2.24   9 2.24  19 2.27
  15  0.902  0.000  0.068-  10 2.23  10 2.23  20 2.26
  16  0.136  0.000  0.012-   2 2.22   2 2.22  11 2.26
  17  0.334  0.000  0.016-   3 2.23   3 2.23  12 2.27
  18  0.534  0.000  0.015-   4 2.22   4 2.22  13 2.26
  19  0.731  0.000  0.008-   5 2.23   5 2.23  14 2.27
  20  0.935  0.000  0.003-   1 2.23   1 2.23  15 2.26
  21  0.084  0.000  0.227-  29 2.53  44 2.53  44 2.53  36 2.54  36 2.54  37 2.54  22 3.28  22 3.28
                            28 3.29  28 3.29
  22  0.209  0.500  0.229-  38 2.53  29 2.53  29 2.53  30 2.54  37 2.54  37 2.54  21 3.28  21 3.28
                            23 3.28  23 3.28
  23  0.334  0.000  0.229-  31 2.53  39 2.53  38 2.53  38 2.53  30 2.54  30 2.54  24 3.28  24 3.28
                            22 3.28  22 3.28
  24  0.458  0.500  0.229-  32 2.53  40 2.53  39 2.54  39 2.54  31 2.54  31 2.54  25 3.28  25 3.28
                            23 3.28  23 3.28
  25  0.583  0.000  0.228-  41 2.53  33 2.53  32 2.54  32 2.54  40 2.54  40 2.54  24 3.28  24 3.28
                            26 3.29  26 3.29
  26  0.708  0.500  0.227-  34 2.53  41 2.53  41 2.53  33 2.54  33 2.54  42 2.54  27 3.29  27 3.29
                            25 3.29  25 3.29
  27  0.833  0.000  0.226-  35 2.53  43 2.54  34 2.54  34 2.54  42 2.54  42 2.54  26 3.29  26 3.29
                            28 3.29  28 3.29
  28  0.959  0.500  0.227-  44 2.53  36 2.53  35 2.53  35 2.53  43 2.54  43 2.54  27 3.29  27 3.29
                            21 3.29  21 3.29
  29  0.166  0.000  0.279-  21 2.53  22 2.53  22 2.53
  30  0.292  0.500  0.280-  23 2.54  23 2.54  22 2.54
  31  0.417  0.000  0.280-  23 2.53  24 2.54  24 2.54
  32  0.542  0.500  0.280-  24 2.53  25 2.54  25 2.54
  33  0.668  0.000  0.279-  25 2.53  26 2.54  26 2.54
  34  0.793  0.500  0.278-  26 2.53  27 2.54  27 2.54
  35  0.917  0.000  0.278-  27 2.53  28 2.53  28 2.53
  36  0.042  0.500  0.278-  28 2.53  21 2.54  21 2.54
  37  0.168  0.000  0.177-  21 2.54  22 2.54  22 2.54
  38  0.293  0.500  0.178-  22 2.53  23 2.53  23 2.53
  39  0.417  0.000  0.178-  23 2.53  24 2.54  24 2.54
  40  0.541  0.500  0.177-  24 2.53  25 2.54  25 2.54
  41  0.666  0.000  0.177-  25 2.53  26 2.53  26 2.53
  42  0.791  0.500  0.175-  26 2.54  27 2.54  27 2.54
  43  0.917  0.000  0.175-  27 2.54  28 2.54  28 2.54
  44  0.043  0.500  0.176-  28 2.53  21 2.53  21 2.53
 
  LATTYP: Found a simple orthorhombic cell.
 ALAT       =     3.2986721992
 B/A-ratio  =     6.8919134462
 C/A-ratio  =     9.9321252856
  
  Lattice vectors:
  
 A1 = (   0.0000000000,  -3.2986721992,   0.0000000000)
 A2 = ( -22.7341632843,   0.0000000000,   0.0000000000)
 A3 = (   0.0000000000,   0.0000000000, -32.7628255587)


Analysis of symmetry for initial positions (statically):
=====================================================================
 Subroutine PRICEL returns:
 Original cell was already a primitive cell.
 

 Routine SETGRP: Setting up the symmetry group for a 
 simple orthorhombic supercell.


 Subroutine GETGRP returns: Found  2 space group operations
 (whereof  2 operations were pure point group operations)
 out of a pool of  8 trial point group operations.


The static configuration has the point symmetry C_1h.


Analysis of symmetry for dynamics (positions and initial velocities):
=====================================================================
 Subroutine PRICEL returns:
 Original cell was already a primitive cell.
 

 Routine SETGRP: Setting up the symmetry group for a 
 simple orthorhombic supercell.


 Subroutine GETGRP returns: Found  2 space group operations
 (whereof  2 operations were pure point group operations)
 out of a pool of  8 trial point group operations.


The dynamic configuration has the point symmetry C_1h.


Analysis of constrained symmetry for selective dynamics:
=====================================================================
 Subroutine PRICEL returns:
 Original cell was already a primitive cell.
 

 Routine SETGRP: Setting up the symmetry group for a 
 simple orthorhombic supercell.


 Subroutine GETGRP returns: Found  2 space group operations
 (whereof  2 operations were pure point group operations)
 out of a pool of  8 trial point group operations.


The constrained configuration has the point symmetry C_1h.


 Subroutine INISYM returns: Found  2 space group operations
 (whereof  2 operations are pure point group operations),
 and found     1 'primitive' translations

 
 
 KPOINTS: X 0, G 14, Y 34                         
  k-points in reciprocal lattice
Space group operators:
 irot       det(A)        alpha          n_x          n_y          n_z        tau_x        tau_y        tau_z
    1     1.000000     0.000001     1.000000     0.000000     0.000000     0.000000     0.000000     0.000000
    2    -1.000000   180.000000     0.000000     1.000000     0.000000     0.000000     0.000000     0.000000

 ----------------------------------------------------------------------------- 
|                                                                             |
|           W    W    AA    RRRRR   N    N  II  N    N   GGGG   !!!           |
|           W    W   A  A   R    R  NN   N  II  NN   N  G    G  !!!           |
|           W    W  A    A  R    R  N N  N  II  N N  N  G       !!!           |
|           W WW W  AAAAAA  RRRRR   N  N N  II  N  N N  G  GGG   !            |
|           WW  WW  A    A  R   R   N   NN  II  N   NN  G    G                |
|           W    W  A    A  R    R  N    N  II  N    N   GGGG   !!!           |
|                                                                             |
|      Your generating k-point grid is not commensurate to the symmetry       |
|      of the lattice.  This can cause   slow convergence with respect        |
|      to k-points for HF type calculations                                   |
|      suggested SOLUTIONS:                                                   |
|       ) if not already the case, use automatic k-point generation           |
|       ) shift your grid to Gamma (G) (e.g. required for hex or fcc lattice) |
|                                                                             |
 ----------------------------------------------------------------------------- 

 
 Subroutine IBZKPT_HF returns following result:
 ==============================================
 
 Found     71 k-points in 1st BZ
 the following     71 k-points will be used (e.g. in the exchange kernel)
 Following reciprocal coordinates:   # in IRBZ
  0.000000  0.000000  0.000000    0.02777778   1 t-inv F
  0.333333  0.000000  0.000000    0.02777778   2 t-inv F
  0.000000  0.083333  0.000000    0.02777778   3 t-inv F
  0.333333  0.083333  0.000000    0.02777778   4 t-inv F
  0.000000  0.166667  0.000000    0.02777778   5 t-inv F
  0.333333  0.166667  0.000000    0.02777778   6 t-inv F
  0.000000  0.250000  0.000000    0.02777778   7 t-inv F
  0.333333  0.250000  0.000000    0.02777778   8 t-inv F
  0.000000  0.333333  0.000000    0.02777778   9 t-inv F
  0.333333  0.333333  0.000000    0.02777778  10 t-inv F
  0.000000  0.416667  0.000000    0.02777778  11 t-inv F
  0.333333  0.416667  0.000000    0.02777778  12 t-inv F
  0.000000  0.500000  0.000000    0.02777778  13 t-inv F
  0.333333  0.500000  0.000000    0.02777778  14 t-inv F
  0.500000  0.000000  0.000000    0.00000000  15 t-inv F
  0.464286  0.000000  0.000000    0.00000000  16 t-inv F
  0.428571  0.000000  0.000000    0.00000000  17 t-inv F
  0.392857  0.000000  0.000000    0.00000000  18 t-inv F
  0.357143  0.000000  0.000000    0.00000000  19 t-inv F
  0.321429  0.000000  0.000000    0.00000000  20 t-inv F
  0.285714  0.000000  0.000000    0.00000000  21 t-inv F
  0.250000  0.000000  0.000000    0.00000000  22 t-inv F
  0.214286  0.000000  0.000000    0.00000000  23 t-inv F
  0.178571  0.000000  0.000000    0.00000000  24 t-inv F
  0.142857  0.000000  0.000000    0.00000000  25 t-inv F
  0.107143  0.000000  0.000000    0.00000000  26 t-inv F
  0.071429  0.000000  0.000000    0.00000000  27 t-inv F
  0.035714  0.000000  0.000000    0.00000000  28 t-inv F
  0.000000  0.000000  0.000000    0.00000000  29 t-inv F
  0.000000  0.025000  0.000000    0.00000000  30 t-inv F
  0.000000  0.050000  0.000000    0.00000000  31 t-inv F
  0.000000  0.075000  0.000000    0.00000000  32 t-inv F
  0.000000  0.100000  0.000000    0.00000000  33 t-inv F
  0.000000  0.125000  0.000000    0.00000000  34 t-inv F
  0.000000  0.150000  0.000000    0.00000000  35 t-inv F
  0.000000  0.175000  0.000000    0.00000000  36 t-inv F
  0.000000  0.200000  0.000000    0.00000000  37 t-inv F
  0.000000  0.225000  0.000000    0.00000000  38 t-inv F
  0.000000  0.250000  0.000000    0.00000000  39 t-inv F
  0.000000  0.275000  0.000000    0.00000000  40 t-inv F
  0.000000  0.300000  0.000000    0.00000000  41 t-inv F
  0.000000  0.325000  0.000000    0.00000000  42 t-inv F
  0.000000  0.350000  0.000000    0.00000000  43 t-inv F
  0.000000  0.375000  0.000000    0.00000000  44 t-inv F
  0.000000  0.400000  0.000000    0.00000000  45 t-inv F
  0.000000  0.425000  0.000000    0.00000000  46 t-inv F
  0.000000  0.450000  0.000000    0.00000000  47 t-inv F
  0.000000  0.475000  0.000000    0.00000000  48 t-inv F
  0.000000  0.500000  0.000000    0.00000000  49 t-inv F
  0.000000 -0.083333  0.000000    0.02777778   3 t-inv F
  0.333333 -0.083333  0.000000    0.02777778   4 t-inv F
  0.000000 -0.166667  0.000000    0.02777778   5 t-inv F
  0.333333 -0.166667  0.000000    0.02777778   6 t-inv F
  0.000000 -0.250000  0.000000    0.02777778   7 t-inv F
  0.333333 -0.250000  0.000000    0.02777778   8 t-inv F
  0.000000 -0.333333  0.000000    0.02777778   9 t-inv F
  0.333333 -0.333333  0.000000    0.02777778  10 t-inv F
  0.000000 -0.416667  0.000000    0.02777778  11 t-inv F
  0.333333 -0.416667  0.000000    0.02777778  12 t-inv F
 -0.333333  0.000000  0.000000    0.02777778   2 t-inv T
 -0.333333 -0.083333  0.000000    0.02777778   4 t-inv T
 -0.333333  0.083333  0.000000    0.02777778   4 t-inv T
 -0.333333 -0.166667  0.000000    0.02777778   6 t-inv T
 -0.333333  0.166667  0.000000    0.02777778   6 t-inv T
 -0.333333 -0.250000  0.000000    0.02777778   8 t-inv T
 -0.333333  0.250000  0.000000    0.02777778   8 t-inv T
 -0.333333 -0.333333  0.000000    0.02777778  10 t-inv T
 -0.333333  0.333333  0.000000    0.02777778  10 t-inv T
 -0.333333 -0.416667  0.000000    0.02777778  12 t-inv T
 -0.333333  0.416667  0.000000    0.02777778  12 t-inv T
 -0.333333 -0.500000  0.000000    0.02777778  14 t-inv T

 ----------------------------------------------------------------------------- 
|                                                                             |
|           W    W    AA    RRRRR   N    N  II  N    N   GGGG   !!!           |
|           W    W   A  A   R    R  NN   N  II  NN   N  G    G  !!!           |
|           W    W  A    A  R    R  N N  N  II  N N  N  G       !!!           |
|           W WW W  AAAAAA  RRRRR   N  N N  II  N  N N  G  GGG   !            |
|           WW  WW  A    A  R   R   N   NN  II  N   NN  G    G                |
|           W    W  A    A  R    R  N    N  II  N    N   GGGG   !!!           |
|                                                                             |
|      The number of bands has been changed from the values supplied          |
|      in the INCAR file. This is a result of running the parallel version.   |
|      The orbitals not found in the WAVECAR file will be initialized with    |
|      random numbers, which is usually adequate. For correlated              |
|      calculations, however, you should redo the groundstate calculation.    |
|      I found NBANDS    =      160  now  NBANDS  =     168                   |
|                                                                             |
 ----------------------------------------------------------------------------- 



--------------------------------------------------------------------------------------------------------




 Dimension of arrays:
   k-points           NKPTS =     49   k-points in BZ     NKDIM =     71   number of bands    NBANDS=    168
   number of dos      NEDOS =    301   number of ions     NIONS =     44
   non local maximal  LDIM  =      6   non local SUM 2l+1 LMDIM =     18
   total plane-waves  NPLWV = 408240
   max r-space proj   IRMAX =      1   max aug-charges    IRDMAX=  10866
   dimension x,y,z NGX =   126 NGY =   18 NGZ =  180
   dimension x,y,z NGXF=   252 NGYF=   36 NGZF=  360
   support grid    NGXF=   252 NGYF=   36 NGZF=  360
   ions per type =              20   8  16
 NGX,Y,Z   is equivalent  to a cutoff of   9.21,  9.07,  9.13 a.u.
 NGXF,Y,Z  is equivalent  to a cutoff of  18.43, 18.14, 18.27 a.u.


 I would recommend the setting:
   dimension x,y,z NGX =   124 NGY =   18 NGZ =  179
 SYSTEM =  MX2                                     
 POSCAR =  MoSe2 full optimized                    

 Startparameter for this run:
   NWRITE =      2    write-flag & timer
   PREC   = normal    normal or accurate (medium, high low for compatibility)
   ISTART =      1    job   : 0-new  1-cont  2-samecut
   ICHARG =      0    charge: 1-file 2-atom 10-const
   ISPIN  =      1    spin polarized calculation?
   LNONCOLLINEAR =      F non collinear calculations
   LSORBIT =      F    spin-orbit coupling
   INIWAV =      1    electr: 0-lowe 1-rand  2-diag
   LASPH  =      F    aspherical Exc in radial PAW
   METAGGA=      F    non-selfconsistent MetaGGA calc.

 Electronic Relaxation 1
   ENCUT  =  500.0 eV  36.75 Ry    6.06 a.u.  41.45  6.01 59.73*2*pi/ulx,y,z
   ENINI  =  500.0     initial cutoff
   ENAUG  =  446.8 eV  augmentation charge cutoff
   NELM   =     60;   NELMIN=  2; NELMDL=  0     # of ELM steps 
   EDIFF  = 0.1E-04   stopping-criterion for ELM
   LREAL  =      F    real-space projection
   NLSPLINE    = F    spline interpolate recip. space projectors
   LCOMPAT=      F    compatible to vasp.4.4
   GGA_COMPAT  = T    GGA compatible to vasp.4.4-vasp.4.6
   LMAXPAW     = -100 max onsite density
   LMAXMIX     =    2 max onsite mixed and CHGCAR
   VOSKOWN=      0    Vosko Wilk Nusair interpolation
   ROPT   =    0.00000   0.00000   0.00000
 Ionic relaxation
   EDIFFG = 0.1E-03   stopping-criterion for IOM
   NSW    =      0    number of steps for IOM
   NBLOCK =      1;   KBLOCK =      1    inner block; outer block 
   IBRION =     -1    ionic relax: 0-MD 1-quasi-New 2-CG
   NFREE  =      0    steps in history (QN), initial steepest desc. (CG)
   ISIF   =      0    stress and relaxation
   IWAVPR =     10    prediction:  0-non 1-charg 2-wave 3-comb
   ISYM   =      3    0-nonsym 1-usesym 2-fastsym
   LCORR  =      T    Harris-Foulkes like correction to forces

   POTIM  = 0.5000    time-step for ionic-motion
   TEIN   =    0.0    initial temperature
   TEBEG  =    0.0;   TEEND  =   0.0 temperature during run
   SMASS  =  -3.00    Nose mass-parameter (am)
   estimated Nose-frequenzy (Omega)   =  0.10E-29 period in steps =****** mass=  -0.118E-25a.u.
   SCALEE = 1.0000    scale energy and forces
   NPACO  =    256;   APACO  = 16.0  distance and # of slots for P.C.
   PSTRESS=    0.0 pullay stress

  Mass of Ions in am
   POMASS =  30.97 95.94 78.96
  Ionic Valenz
   ZVAL   =   5.00  6.00  6.00
  Atomic Wigner-Seitz radii
   RWIGS  =  -1.00 -1.00 -1.00
  virtual crystal weights 
   VCA    =   1.00  1.00  1.00
   NELECT =     244.0000    total number of electrons
   NUPDOWN=      -1.0000    fix difference up-down

 DOS related values:
   EMIN   =  10.00;   EMAX   =-10.00  energy-range for DOS
   EFERMI =   0.00
   ISMEAR =     0;   SIGMA  =   0.10  broadening in eV -4-tet -1-fermi 0-gaus

 Electronic relaxation 2 (details)
   IALGO  =     53    algorithm
   LDIAG  =      T    sub-space diagonalisation (order eigenvalues)
   LSUBROT=      F    optimize rotation matrix (better conditioning)
   TURBO    =      0    0=normal 1=particle mesh
   IRESTART =      0    0=no restart 2=restart with 2 vectors
   NREBOOT  =      0    no. of reboots
   NMIN     =      0    reboot dimension
   EREF     =   0.00    reference energy to select bands
   IMIX   =      4    mixing-type and parameters
     AMIX     =   0.40;   BMIX     =  1.00
     AMIX_MAG =   1.60;   BMIX_MAG =  1.00
     AMIN     =   0.10
     WC   =   100.;   INIMIX=   1;  MIXPRE=   1;  MAXMIX= -45

 Intra band minimization:
   WEIMIN = 0.0000     energy-eigenvalue tresh-hold
   EBREAK =  0.15E-07  absolut break condition
   DEPER  =   0.30     relativ break condition  

   TIME   =   0.50     timestep for ELM

  volume/ion in A,a.u.               =      55.84       376.83
  Fermi-wavevector in a.u.,A,eV,Ry     =   0.758121  1.432640  7.819905  0.574747
  Thomas-Fermi vector in A             =   1.856620
 
 Write flags
   LWAVE  =      T    write WAVECAR
   LCHARG =      T    write CHGCAR
   LVTOT  =      T    write LOCPOT, total local potential
   LVHAR  =      F    write LOCPOT, Hartree potential only
   LELF   =      F    write electronic localiz. function (ELF)
   LORBIT =     11    0 simple, 1 ext, 2 COOP (PROOUT)


 Dipole corrections
   LMONO  =      F    monopole corrections only (constant potential shift)
   LDIPOL =      T    correct potential (dipole corrections)
   IDIPOL =      3    1-x, 2-y, 3-z, 4-all directions 
   EPSILON=  1.0000000 bulk dielectric constant

 Exchange correlation treatment:
   GGA     =    PE    GGA type
   LEXCH   =     8    internal setting for exchange type
   VOSKOWN=      0    Vosko Wilk Nusair interpolation
   EXXOEP  =     0    0=HF, 1=EXX-LHF (local Hartree Fock) 2=EXX OEP
   LHFCALC =     T    Hartree Fock is set to
   LSYMGRAD=     F    symmetrize gradient (conserves proper symmetry)
   PRECFOCK=fast      Normal, Fast or Accurate (Low or Medium for compatibility)
   LRHFCALC=     F    long range Hartree Fock
   LRSCOR  =     F    long range correlation only (use DFT for short range part)
   LTHOMAS =     F    Thomas Fermi screening in HF
   LMODELHF=     F    short range full HF, long range fraction AEXX
   ENCUT4O =  -1.0   cutoff for four orbital integrals eV
   LMAXFOCK=     4    L truncation for augmentation on plane wave grid
   LMAXFOCKAE=  -1    L truncation for all-electron charge restoration on plane wave grid
   NMAXFOCKAE=   1    number of basis functions for all-electron charge restoration
   LFOCKAEDFT=     F  apply the AE augmentation even for DFT
   NKREDX  =     1    reduce k-point grid by
   NKREDY  =     1    reduce k-point grid by
   NKREDZ  =     1    reduce k-point grid by
   SHIFTRED=     F    shift reduced grid of Gamma
   HFKIDENT=     F    idential grid for each k-point
   ODDONLY =     F    use only odd q-grid points
   EVENONLY=     F    use only even q-grid points
   HFALPHA =   -1.0000 decay constant for conv. correction
   MCALPHA =    0.0000 extent of test-charge in conv. correction in multipole expansion
   AEXX    =    0.2500 exact exchange contribution
   HFSCREEN=    0.2000 screening length (either q_TF or 0.3 A-1)
   HFSCREENC=   0.2000 screening length for correlation (either q_TF or 0.3 A-1)
   HFRCUT  =    0.0000 spherical cutoff for potential kernel
   ALDAX   =    0.7500 LDA exchange part
   AGGAX   =    0.7500 GGA exchange part
   ALDAC   =    1.0000 LDA correlation
   AGGAC   =    1.0000 GGA correlation
   NBANDSGWLOW=     1    first orbital included in HF term
   ENCUTFOCK=  -1.0 apply spherical cutoff to Coloumb kernel
 Linear response parameters
   LEPSILON=     F    determine dielectric tensor
   LRPA    =     F    only Hartree local field effects (RPA)
   LNABLA  =     F    use nabla operator in PAW spheres
   LVEL    =     F    velocity operator in full k-point grid
   LINTERFAST=   F  fast interpolation
   KINTER  =     0    interpolate to denser k-point grid
   CSHIFT  =0.1000    complex shift for real part using Kramers Kronig
   OMEGAMAX=  -1.0    maximum frequency
   DEG_THRESHOLD= 0.2000000E-02 threshold for treating states as degnerate
   RTIME   =    0.100 relaxation time in fs

 Orbital magnetization related:
   ORBITALMAG=     F  switch on orbital magnetization
   LCHIMAG   =     F  perturbation theory with respect to B field
   DQ        =  0.001000  dq finite difference perturbation B field



--------------------------------------------------------------------------------------------------------


 Static calculation
 charge density and potential will be updated during run
 non-spin polarized calculation
 Conjugate gradient for all bands (Freysoldt, et al. PRB 79, 241103 (2009))
 perform sub-space diagonalisation
    before iterative eigenvector-optimisation
 modified Broyden-mixing scheme, WC =      100.0
 initial mixing is a Kerker type mixing with AMIX =  0.4000 and BMIX =      1.0000
 Hartree-type preconditioning will be used
 using additional bands           46
 reciprocal scheme for non local part
 use partial core corrections
 no Harris-corrections to forces 
 use gradient corrections 
 use of overlap-Matrix (Vanderbilt PP)
 Gauss-broadening in eV      SIGMA  =   0.10


--------------------------------------------------------------------------------------------------------


  energy-cutoff  :      500.00
  volume of cell :     2456.97
      direct lattice vectors                 reciprocal lattice vectors
    22.734163284  0.000000000  0.000000000     0.043986664  0.000000000  0.000000000
     0.000000000  3.298672199  0.000000000     0.000000000  0.303152281  0.000000000
     0.000000000  0.000000000 32.762825559     0.000000000  0.000000000  0.030522398

  length of vectors
    22.734163284  3.298672199 32.762825559     0.043986664  0.303152281  0.030522398


 
 old parameters found on file WAVECAR:
  energy-cutoff  :      500.00
  volume of cell :     2456.97
      direct lattice vectors                 reciprocal lattice vectors
    22.734163284  0.000000000  0.000000000     0.043986664  0.000000000  0.000000000
     0.000000000  3.298672199  0.000000000     0.000000000  0.303152281  0.000000000
     0.000000000  0.000000000 32.762825559     0.000000000  0.000000000  0.030522398

  length of vectors

 
 k-points in units of 2pi/SCALE and weight: X 0, G 14, Y 34                         
   0.00000000  0.00000000  0.00000000       0.028
   0.01466222  0.00000000  0.00000000       0.056
   0.00000000  0.02526269  0.00000000       0.056
   0.01466222  0.02526269  0.00000000       0.111
   0.00000000  0.05052538  0.00000000       0.056
   0.01466222  0.05052538  0.00000000       0.111
   0.00000000  0.07578807  0.00000000       0.056
   0.01466222  0.07578807  0.00000000       0.111
   0.00000000  0.10105076  0.00000000       0.056
   0.01466222  0.10105076  0.00000000       0.111
   0.00000000  0.12631345  0.00000000       0.056
   0.01466222  0.12631345  0.00000000       0.111
   0.00000000  0.15157614  0.00000000       0.028
   0.01466222  0.15157614  0.00000000       0.056
   0.02199333  0.00000000  0.00000000       0.000
   0.02042238  0.00000000  0.00000000       0.000
   0.01885143  0.00000000  0.00000000       0.000
   0.01728048  0.00000000  0.00000000       0.000
   0.01570952  0.00000000  0.00000000       0.000
   0.01413857  0.00000000  0.00000000       0.000
   0.01256762  0.00000000  0.00000000       0.000
   0.01099667  0.00000000  0.00000000       0.000
   0.00942571  0.00000000  0.00000000       0.000
   0.00785476  0.00000000  0.00000000       0.000
   0.00628381  0.00000000  0.00000000       0.000
   0.00471286  0.00000000  0.00000000       0.000
   0.00314190  0.00000000  0.00000000       0.000
   0.00157095  0.00000000  0.00000000       0.000
   0.00000000  0.00000000  0.00000000       0.000
   0.00000000  0.00757881  0.00000000       0.000
   0.00000000  0.01515761  0.00000000       0.000
   0.00000000  0.02273642  0.00000000       0.000
   0.00000000  0.03031523  0.00000000       0.000
   0.00000000  0.03789404  0.00000000       0.000
   0.00000000  0.04547284  0.00000000       0.000
   0.00000000  0.05305165  0.00000000       0.000
   0.00000000  0.06063046  0.00000000       0.000
   0.00000000  0.06820926  0.00000000       0.000
   0.00000000  0.07578807  0.00000000       0.000
   0.00000000  0.08336688  0.00000000       0.000
   0.00000000  0.09094568  0.00000000       0.000
   0.00000000  0.09852449  0.00000000       0.000
   0.00000000  0.10610330  0.00000000       0.000
   0.00000000  0.11368211  0.00000000       0.000
   0.00000000  0.12126091  0.00000000       0.000
   0.00000000  0.12883972  0.00000000       0.000
   0.00000000  0.13641853  0.00000000       0.000
   0.00000000  0.14399733  0.00000000       0.000
   0.00000000  0.15157614  0.00000000       0.000
 
 k-points in reciprocal lattice and weights: X 0, G 14, Y 34                         
   0.00000000  0.00000000  0.00000000       0.028
   0.33333333  0.00000000  0.00000000       0.056
   0.00000000  0.08333333  0.00000000       0.056
   0.33333333  0.08333333  0.00000000       0.111
   0.00000000  0.16666667  0.00000000       0.056
   0.33333333  0.16666667  0.00000000       0.111
   0.00000000  0.25000000  0.00000000       0.056
   0.33333333  0.25000000  0.00000000       0.111
   0.00000000  0.33333333  0.00000000       0.056
   0.33333333  0.33333333  0.00000000       0.111
   0.00000000  0.41666667  0.00000000       0.056
   0.33333333  0.41666667  0.00000000       0.111
   0.00000000  0.50000000  0.00000000       0.028
   0.33333333  0.50000000  0.00000000       0.056
   0.50000000  0.00000000  0.00000000       0.000
   0.46428571  0.00000000  0.00000000       0.000
   0.42857143  0.00000000  0.00000000       0.000
   0.39285714  0.00000000  0.00000000       0.000
   0.35714286  0.00000000  0.00000000       0.000
   0.32142857  0.00000000  0.00000000       0.000
   0.28571429  0.00000000  0.00000000       0.000
   0.25000000  0.00000000  0.00000000       0.000
   0.21428571  0.00000000  0.00000000       0.000
   0.17857143  0.00000000  0.00000000       0.000
   0.14285714  0.00000000  0.00000000       0.000
   0.10714286  0.00000000  0.00000000       0.000
   0.07142857  0.00000000  0.00000000       0.000
   0.03571429  0.00000000  0.00000000       0.000
   0.00000000  0.00000000  0.00000000       0.000
   0.00000000  0.02500000  0.00000000       0.000
   0.00000000  0.05000000  0.00000000       0.000
   0.00000000  0.07500000  0.00000000       0.000
   0.00000000  0.10000000  0.00000000       0.000
   0.00000000  0.12500000  0.00000000       0.000
   0.00000000  0.15000000  0.00000000       0.000
   0.00000000  0.17500000  0.00000000       0.000
   0.00000000  0.20000000  0.00000000       0.000
   0.00000000  0.22500000  0.00000000       0.000
   0.00000000  0.25000000  0.00000000       0.000
   0.00000000  0.27500000  0.00000000       0.000
   0.00000000  0.30000000  0.00000000       0.000
   0.00000000  0.32500000  0.00000000       0.000
   0.00000000  0.35000000  0.00000000       0.000
   0.00000000  0.37500000  0.00000000       0.000
   0.00000000  0.40000000  0.00000000       0.000
   0.00000000  0.42500000  0.00000000       0.000
   0.00000000  0.45000000  0.00000000       0.000
   0.00000000  0.47500000  0.00000000       0.000
   0.00000000  0.50000000  0.00000000       0.000
 
 position of ions in fractional coordinates (direct lattice) 
   0.00146504  0.50000000  0.00430000
   0.20152642  0.50000000  0.01454760
   0.39990485  0.50000000  0.01636790
   0.59935723  0.50000000  0.01412480
   0.79720266  0.50000000  0.00555000
   0.02871694  0.50000000  0.07085170
   0.23260144  0.50000000  0.08026570
   0.43462875  0.50000000  0.08114970
   0.63774910  0.50000000  0.07796250
   0.83591189  0.50000000  0.06914190
   0.09462180  0.00000000  0.07501690
   0.29919833  0.00000000  0.08109250
   0.50098698  0.00000000  0.08064410
   0.70417674  0.00000000  0.07498680
   0.90158316  0.00000000  0.06762230
   0.13597057  0.00000000  0.01215070
   0.33419326  0.00000000  0.01632590
   0.53373080  0.00000000  0.01535960
   0.73147612  0.00000000  0.00837000
   0.93537595  0.00000000  0.00268000
   0.08399928  0.00000000  0.22741300
   0.20869599  0.50000000  0.22850101
   0.33361685  0.00000000  0.22929800
   0.45847624  0.50000000  0.22883700
   0.58321894  0.00000000  0.22817200
   0.70847257  0.50000000  0.22726300
   0.83349452  0.00000000  0.22626799
   0.95872133  0.50000000  0.22654200
   0.16639148  0.00000000  0.27937299
   0.29157399  0.50000000  0.28032801
   0.41727014  0.00000000  0.28026599
   0.54238577  0.50000000  0.27967399
   0.66756110  0.00000000  0.27878401
   0.79255819  0.50000000  0.27774099
   0.91687153  0.00000000  0.27759600
   0.04157395  0.50000000  0.27827999
   0.16825397  0.00000000  0.17663300
   0.29261888  0.50000000  0.17798600
   0.41661352  0.00000000  0.17773700
   0.54123023  0.50000000  0.17703401
   0.66593002  0.00000000  0.17657100
   0.79117317  0.50000000  0.17514600
   0.91726214  0.00000000  0.17518499
   0.04304257  0.50000000  0.17599200
 
 position of ions in cartesian coordinates  (Angst):
   0.03330649  1.64933610  0.14088015
   4.58153461  1.64933610  0.47662049
   9.09150215  1.64933610  0.53625863
  13.62588505  1.64933610  0.46276837
  18.12373537  1.64933610  0.18183368
   0.65285562  1.64933610  2.32130184
   5.28799918  1.64933610  2.62973115
   9.88092095  1.64933610  2.65869338
  14.49869213  1.64933610  2.55427188
  19.00375731  1.64933610  2.26528407
   2.15114746  0.00000000  2.45776564
   6.80202380  0.00000000  2.65681940
  11.38951986  0.00000000  2.64212861
  16.00886888  0.00000000  2.45677947
  20.49673881  0.00000000  2.21549750
   3.09117719  0.00000000  0.39809127
   7.59760424  0.00000000  0.53488263
  12.13392319  0.00000000  0.50322390
  16.62949744  0.00000000  0.27422485
  21.26498965  0.00000000  0.08780437
   1.90965329  0.00000000  7.45069240
   4.74452871  1.64933610  7.48633863
   7.58449996  0.00000000  7.51245023
  10.42307369  1.64933610  7.49734666
  13.25899466  0.00000000  7.47555957
  16.10653109  1.64933610  7.44577814
  18.94880043  0.00000000  7.41317880
  21.79572723  1.64933610  7.42215590
   3.78277114  0.00000000  9.15304854
   6.62869059  1.64933610  9.18433754
   9.48628755  0.00000000  9.18230564
  12.33068669  1.64933610  9.16291026
  15.17644316  0.00000000  9.13375178
  18.01814731  1.64933610  9.09957945
  20.84430697  0.00000000  9.09482922
   0.94514902  1.64933610  9.11723877
   3.82511328  0.00000000  5.78699618
   6.65244551  1.64933610  5.83132414
   9.47135982  0.00000000  5.82316625
  12.30441636  1.64933610  5.80013424
  15.13936185  0.00000000  5.78496476
  17.98666003  1.64933610  5.73827780
  20.85318728  0.00000000  5.73955543
   0.97853672  1.64933610  5.76599510
 


--------------------------------------------------------------------------------------------------------


 k-point  1 :   0.0000 0.0000 0.0000  plane waves:   61981
 k-point  2 :   0.3333 0.0000 0.0000  plane waves:   61977
 k-point  3 :   0.0000 0.0833 0.0000  plane waves:   62132
 k-point  4 :   0.3333 0.0833 0.0000  plane waves:   62161
 k-point  5 :   0.0000 0.1667 0.0000  plane waves:   62328
 k-point  6 :   0.3333 0.1667 0.0000  plane waves:   62299
 k-point  7 :   0.0000 0.2500 0.0000  plane waves:   62440
 k-point  8 :   0.3333 0.2500 0.0000  plane waves:   62420
 k-point  9 :   0.0000 0.3333 0.0000  plane waves:   62544
 k-point 10 :   0.3333 0.3333 0.0000  plane waves:   62541
 k-point 11 :   0.0000 0.4167 0.0000  plane waves:   62560
 k-point 12 :   0.3333 0.4167 0.0000  plane waves:   62551
 k-point 13 :   0.0000 0.5000 0.0000  plane waves:   62600
 k-point 14 :   0.3333 0.5000 0.0000  plane waves:   62598
 k-point 15 :   0.5000 0.0000 0.0000  plane waves:   61990
 k-point 16 :   0.4643 0.0000 0.0000  plane waves:   61988
 k-point 17 :   0.4286 0.0000 0.0000  plane waves:   61995
 k-point 18 :   0.3929 0.0000 0.0000  plane waves:   61987
 k-point 19 :   0.3571 0.0000 0.0000  plane waves:   61973
 k-point 20 :   0.3214 0.0000 0.0000  plane waves:   61971
 k-point 21 :   0.2857 0.0000 0.0000  plane waves:   61963
 k-point 22 :   0.2500 0.0000 0.0000  plane waves:   61989
 k-point 23 :   0.2143 0.0000 0.0000  plane waves:   61973
 k-point 24 :   0.1786 0.0000 0.0000  plane waves:   61983
 k-point 25 :   0.1429 0.0000 0.0000  plane waves:   61997
 k-point 26 :   0.1071 0.0000 0.0000  plane waves:   61973
 k-point 27 :   0.0714 0.0000 0.0000  plane waves:   61965
 k-point 28 :   0.0357 0.0000 0.0000  plane waves:   61953
 k-point 29 :   0.0000 0.0000 0.0000  plane waves:   61981
 k-point 30 :   0.0000 0.0250 0.0000  plane waves:   61940
 k-point 31 :   0.0000 0.0500 0.0000  plane waves:   62022
 k-point 32 :   0.0000 0.0750 0.0000  plane waves:   62130
 k-point 33 :   0.0000 0.1000 0.0000  plane waves:   62178
 k-point 34 :   0.0000 0.1250 0.0000  plane waves:   62234
 k-point 35 :   0.0000 0.1500 0.0000  plane waves:   62232
 k-point 36 :   0.0000 0.1750 0.0000  plane waves:   62346
 k-point 37 :   0.0000 0.2000 0.0000  plane waves:   62372
 k-point 38 :   0.0000 0.2250 0.0000  plane waves:   62438
 k-point 39 :   0.0000 0.2500 0.0000  plane waves:   62440
 k-point 40 :   0.0000 0.2750 0.0000  plane waves:   62446
 k-point 41 :   0.0000 0.3000 0.0000  plane waves:   62534
 k-point 42 :   0.0000 0.3250 0.0000  plane waves:   62554
 k-point 43 :   0.0000 0.3500 0.0000  plane waves:   62538
 k-point 44 :   0.0000 0.3750 0.0000  plane waves:   62536
 k-point 45 :   0.0000 0.4000 0.0000  plane waves:   62562
 k-point 46 :   0.0000 0.4250 0.0000  plane waves:   62610
 k-point 47 :   0.0000 0.4500 0.0000  plane waves:   62598
 k-point 48 :   0.0000 0.4750 0.0000  plane waves:   62596
 k-point 49 :   0.0000 0.5000 0.0000  plane waves:   62600

 maximum and minimum number of plane-waves per node :     62610    61940

 maximum number of plane-waves:     62610
 maximum index in each direction: 
   IXMAX=   41   IYMAX=    6   IZMAX=   59
   IXMIN=  -41   IYMIN=   -6   IZMIN=  -59

 WARNING: aliasing errors must be expected set NGX to 166 to avoid them
 WARNING: aliasing errors must be expected set NGY to  26 to avoid them
 WARNING: aliasing errors must be expected set NGZ to 238 to avoid them
 aliasing errors are usually negligible using standard VASP settings
 and one can safely disregard these warnings

 serial   3D FFT for wavefunctions
 parallel 3D FFT for charge:
    minimum data exchange during FFTs selected (reduces bandwidth)


 FFT grid for exact exchange (Hartree Fock) 
  NGX = 96; NGY = 14; NGZ =140

 
 Radii for the augmentation spheres in the non-local exchange
 for species   1 augmentation radius   1.294 (default was   0.959)
       energy cutoff for augmentation   2000.0
 for species   2 augmentation radius   1.660 (default was   1.230)
       energy cutoff for augmentation   2000.0
 for species   3 augmentation radius   1.459 (default was   1.081)
       energy cutoff for augmentation   2000.0
 Maximum index for augmentation-charges in exchange         1462
  SETUP_FOCK is finished

 total amount of memory used by VASP on root node  3532154. kBytes
========================================================================

   base      :      30000. kBytes
   nonl-proj :    1369537. kBytes
   fftplans  :      10791. kBytes
   grid      :      33856. kBytes
   one-center:        684. kBytes
   HF        :        194. kBytes
   nonlr-proj:       8284. kBytes
   wavefun   :    2078808. kBytes
 
     INWAV:  cpu time   35.7116: real time   35.7119
 Broyden mixing: mesh for mixing (old mesh)
   NGX = 83   NGY = 13   NGZ =119
  (NGX  =252   NGY  = 36   NGZ  =360)
  gives a total of 128401 points

 charge density for first step will be calculated from the start-wavefunctions


--------------------------------------------------------------------------------------------------------


 Maximum index for augmentation-charges          918 (set IRDMAX)


--------------------------------------------------------------------------------------------------------


 initial charge from wavefunction
 First call to EWALD:  gamma=   0.131
 Maximum number of real-space cells 2x10x 1
 Maximum number of reciprocal cells 4x 1x 6

 FEWALD executed in parallel
    FEWALD:  cpu time    0.0030: real time    0.0026


----------------------------------------- Iteration    1(   1)  ---------------------------------------


    POTLOK:  cpu time    0.9459: real time    0.9462
    SETDIJ:  cpu time    0.2060: real time    0.2054
    TRIAL :  cpu time 2260.6383: real time 2259.4176
    CORREC:  cpu time    0.0020: real time    0.0043
    CHARGE:  cpu time    0.4579: real time    0.4577
    --------------------------------------------
      LOOP:  cpu time 2262.6480: real time 2261.5470

 eigenvalue-minimisations  :     0
 total energy-change (2. order) :-0.3190905E+03  (-0.1083817E+01)
 number of electron     244.0000072 magnetization 
 augmentation part      -19.5584759 magnetization 

 DIPCOR: dipole corrections for dipol
 direction  3 min pos   242,
 dipolmoment           0.000000      0.000000     -0.040907 electrons x Angstroem
 Tr[quadrupol]    -10746.389723

 energy correction for charged system         0.000000 eV
 dipol+quadrupol energy correction           -0.000062 eV
 added-field ion interaction         -0.416537 eV  (added to PSCEN)


 Free energy of the ion-electron system (eV)
  ---------------------------------------------------
  alpha Z        PSCENC =       222.65017462
  Ewald energy   TEWEN  =     75770.78259834
  -Hartree energ DENC   =    -84454.81728104
  -exchange      EXHF   =       380.92329697
  -V(xc)+E(xc)   XCENC  =      -348.40639218
  PAW double counting   =     19593.66112702   -18840.98491539
  entropy T*S    EENTRO =        -0.00000000
  eigenvalues    EBANDS =     -1933.31167754
  atomic energy  EATOM  =      9290.41257002
  ---------------------------------------------------
  free energy    TOTEN  =      -319.09049917 eV

  energy without entropy =     -319.09049917  energy(sigma->0) =     -319.09049917
  exchange ACFDT corr.  =        -0.00000000  see jH, gK, PRB 81, 115126


--------------------------------------------------------------------------------------------------------




----------------------------------------- Iteration    1(   2)  ---------------------------------------


    POTLOK:  cpu time    0.9329: real time    0.9324
    SETDIJ:  cpu time    0.1890: real time    0.1886
    TRIAL :  cpu time 2279.8854: real time 2278.6285
    CORREC:  cpu time    0.0010: real time    0.0017
    CHARGE:  cpu time    0.4589: real time    0.4583
    --------------------------------------------
      LOOP:  cpu time 2281.4712: real time 2280.2304

 eigenvalue-minimisations  :     0
 total energy-change (2. order) :-0.6660318E+00  (-0.4001203E+00)
 number of electron     244.0000071 magnetization 
 augmentation part      -19.3675843 magnetization 

 DIPCOR: dipole corrections for dipol
 direction  3 min pos   241,
 dipolmoment           0.000000      0.000000     -0.039595 electrons x Angstroem
 Tr[quadrupol]    -10745.256464

 energy correction for charged system         0.000000 eV
 dipol+quadrupol energy correction           -0.000058 eV
 added-field ion interaction         -0.338147 eV  (added to PSCEN)


 Free energy of the ion-electron system (eV)
  ---------------------------------------------------
  alpha Z        PSCENC =       222.72856833
  Ewald energy   TEWEN  =     75770.78259834
  -Hartree energ DENC   =    -84418.58341491
  -exchange      EXHF   =       381.17616118
  -V(xc)+E(xc)   XCENC  =      -347.73243978
  PAW double counting   =     21588.92758407   -20836.19967738
  entropy T*S    EENTRO =        -0.00000000
  eigenvalues    EBANDS =     -1971.26848084
  atomic energy  EATOM  =      9290.41257002
  ---------------------------------------------------
  free energy    TOTEN  =      -319.75653095 eV

  energy without entropy =     -319.75653095  energy(sigma->0) =     -319.75653095
  exchange ACFDT corr.  =        -0.00000000  see jH, gK, PRB 81, 115126


--------------------------------------------------------------------------------------------------------




----------------------------------------- Iteration    1(   3)  ---------------------------------------


    POTLOK:  cpu time    0.9289: real time    0.9287
    SETDIJ:  cpu time    0.1970: real time    0.1963
    TRIAL :  cpu time 2277.3558: real time 2276.0711
    CORREC:  cpu time    0.0020: real time    0.0016
    CHARGE:  cpu time    0.4579: real time    0.4577
    --------------------------------------------
      LOOP:  cpu time 2278.9445: real time 2277.6692

 eigenvalue-minimisations  :     0
 total energy-change (2. order) :-0.2251198E+00  (-0.1249222E+00)
 number of electron     244.0000071 magnetization 
 augmentation part      -19.3429069 magnetization 

 DIPCOR: dipole corrections for dipol
 direction  3 min pos   239,
 dipolmoment           0.000000      0.000000     -0.000002 electrons x Angstroem
 Tr[quadrupol]    -10746.842439

 energy correction for charged system         0.000000 eV
 dipol+quadrupol energy correction           -0.000000 eV
 added-field ion interaction         -0.000008 eV  (added to PSCEN)


 Free energy of the ion-electron system (eV)
  ---------------------------------------------------
  alpha Z        PSCENC =       223.06676583
  Ewald energy   TEWEN  =     75770.78259834
  -Hartree energ DENC   =    -84450.84221635
  -exchange      EXHF   =       381.39740346
  -V(xc)+E(xc)   XCENC  =      -347.35765396
  PAW double counting   =     23304.85688371   -22552.34610200
  entropy T*S    EENTRO =        -0.00000000
  eigenvalues    EBANDS =     -1939.95189977
  atomic energy  EATOM  =      9290.41257002
  ---------------------------------------------------
  free energy    TOTEN  =      -319.98165071 eV

  energy without entropy =     -319.98165071  energy(sigma->0) =     -319.98165071
  exchange ACFDT corr.  =        -0.00000000  see jH, gK, PRB 81, 115126


--------------------------------------------------------------------------------------------------------




----------------------------------------- Iteration    1(   4)  ---------------------------------------


    POTLOK:  cpu time    0.9309: real time    0.9304
    SETDIJ:  cpu time    0.1830: real time    0.1829
    TRIAL :  cpu time 2276.9149: real time 2275.7631
    CORREC:  cpu time    0.0020: real time    0.0017
    CHARGE:  cpu time    0.4559: real time    0.4563
    --------------------------------------------
      LOOP:  cpu time 2278.4896: real time 2277.3542

 eigenvalue-minimisations  :     0
 total energy-change (2. order) :-0.8190300E-01  (-0.4537054E-01)
 number of electron     244.0000071 magnetization 
 augmentation part      -19.3360152 magnetization 

 DIPCOR: dipole corrections for dipol
 direction  3 min pos   238,
 dipolmoment           0.000000      0.000000     -0.071471 electrons x Angstroem
 Tr[quadrupol]    -10746.095711

 energy correction for charged system         0.000000 eV
 dipol+quadrupol energy correction           -0.000189 eV
 added-field ion interaction         -0.258233 eV  (added to PSCEN)


 Free energy of the ion-electron system (eV)
  ---------------------------------------------------
  alpha Z        PSCENC =       222.80835189
  Ewald energy   TEWEN  =     75770.78259834
  -Hartree energ DENC   =    -84437.08664985
  -exchange      EXHF   =       381.69347423
  -V(xc)+E(xc)   XCENC  =      -347.13372241
  PAW double counting   =     24140.26247033   -23387.77640546
  entropy T*S    EENTRO =        -0.00000000
  eigenvalues    EBANDS =     -1954.02624081
  atomic energy  EATOM  =      9290.41257002
  ---------------------------------------------------
  free energy    TOTEN  =      -320.06355371 eV

  energy without entropy =     -320.06355371  energy(sigma->0) =     -320.06355371
  exchange ACFDT corr.  =        -0.00000000  see jH, gK, PRB 81, 115126


--------------------------------------------------------------------------------------------------------




----------------------------------------- Iteration    1(   5)  ---------------------------------------


    POTLOK:  cpu time    0.9289: real time    0.9285
    SETDIJ:  cpu time    0.1910: real time    0.1905
    TRIAL :  cpu time 2277.1958: real time 2275.9186
    CORREC:  cpu time    0.0010: real time    0.0016
    CHARGE:  cpu time    0.4579: real time    0.4580
    --------------------------------------------
      LOOP:  cpu time 2278.7786: real time 2277.5122

 eigenvalue-minimisations  :     0
 total energy-change (2. order) :-0.3194973E-01  (-0.2060151E-01)
 number of electron     244.0000071 magnetization 
 augmentation part      -19.3276486 magnetization 

 DIPCOR: dipole corrections for dipol
 direction  3 min pos   237,
 dipolmoment           0.000000      0.000000     -0.002474 electrons x Angstroem
 Tr[quadrupol]    -10746.055868

 energy correction for charged system         0.000000 eV
 dipol+quadrupol energy correction           -0.000000 eV
 added-field ion interaction         -0.004876 eV  (added to PSCEN)


 Free energy of the ion-electron system (eV)
  ---------------------------------------------------
  alpha Z        PSCENC =       223.06189767
  Ewald energy   TEWEN  =     75770.78259834
  -Hartree energ DENC   =    -84436.36676193
  -exchange      EXHF   =       381.87780215
  -V(xc)+E(xc)   XCENC  =      -347.07062273
  PAW double counting   =     24375.81481856   -23623.34853807
  entropy T*S    EENTRO =        -0.00000000
  eigenvalues    EBANDS =     -1955.25926744
  atomic energy  EATOM  =      9290.41257002
  ---------------------------------------------------
  free energy    TOTEN  =      -320.09550344 eV

  energy without entropy =     -320.09550344  energy(sigma->0) =     -320.09550344
  exchange ACFDT corr.  =        -0.00000000  see jH, gK, PRB 81, 115126


--------------------------------------------------------------------------------------------------------




----------------------------------------- Iteration    1(   6)  ---------------------------------------


    POTLOK:  cpu time    0.9259: real time    0.9265
    SETDIJ:  cpu time    0.1440: real time    0.1436
    TRIAL :  cpu time 2276.2770: real time 2274.9976
    CORREC:  cpu time    0.0020: real time    0.0016
    CHARGE:  cpu time    0.4559: real time    0.4559
    --------------------------------------------
      LOOP:  cpu time 2277.8097: real time 2276.5937

 eigenvalue-minimisations  :     0
 total energy-change (2. order) :-0.1465297E-01  (-0.9203812E-02)
 number of electron     244.0000072 magnetization 
 augmentation part      -19.3332649 magnetization 

 DIPCOR: dipole corrections for dipol
 direction  3 min pos   237,
 dipolmoment           0.000000      0.000000     -0.035765 electrons x Angstroem
 Tr[quadrupol]    -10746.268891

 energy correction for charged system         0.000000 eV
 dipol+quadrupol energy correction           -0.000047 eV
 added-field ion interaction         -0.070483 eV  (added to PSCEN)


 Free energy of the ion-electron system (eV)
  ---------------------------------------------------
  alpha Z        PSCENC =       222.99624342
  Ewald energy   TEWEN  =     75770.78259834
  -Hartree energ DENC   =    -84441.53708129
  -exchange      EXHF   =       381.96467190
  -V(xc)+E(xc)   XCENC  =      -347.07185842
  PAW double counting   =     24357.47523977   -23605.03352424
  entropy T*S    EENTRO =        -0.00000000
  eigenvalues    EBANDS =     -1950.09901592
  atomic energy  EATOM  =      9290.41257002
  ---------------------------------------------------
  free energy    TOTEN  =      -320.11015640 eV

  energy without entropy =     -320.11015640  energy(sigma->0) =     -320.11015640
  exchange ACFDT corr.  =        -0.00000000  see jH, gK, PRB 81, 115126


--------------------------------------------------------------------------------------------------------




----------------------------------------- Iteration    1(   7)  ---------------------------------------


    POTLOK:  cpu time    0.9299: real time    0.9291
    SETDIJ:  cpu time    0.1940: real time    0.1942
    TRIAL :  cpu time 2277.7457: real time 2276.4826
    CORREC:  cpu time    0.0020: real time    0.0016
    CHARGE:  cpu time    0.4579: real time    0.4576
    --------------------------------------------
      LOOP:  cpu time 2279.3325: real time 2278.0798

 eigenvalue-minimisations  :     0
 total energy-change (2. order) :-0.6752744E-02  (-0.3870946E-02)
 number of electron     244.0000072 magnetization 
 augmentation part      -19.3351379 magnetization 

 DIPCOR: dipole corrections for dipol
 direction  3 min pos   237,
 dipolmoment           0.000000      0.000000     -0.022727 electrons x Angstroem
 Tr[quadrupol]    -10746.029347

 energy correction for charged system         0.000000 eV
 dipol+quadrupol energy correction           -0.000019 eV
 added-field ion interaction         -0.044788 eV  (added to PSCEN)


 Free energy of the ion-electron system (eV)
  ---------------------------------------------------
  alpha Z        PSCENC =       223.02196663
  Ewald energy   TEWEN  =     75770.78259834
  -Hartree energ DENC   =    -84437.51613888
  -exchange      EXHF   =       382.01461781
  -V(xc)+E(xc)   XCENC  =      -347.07118877
  PAW double counting   =     24276.51800283   -23524.07544062
  entropy T*S    EENTRO =        -0.00000000
  eigenvalues    EBANDS =     -1954.20389652
  atomic energy  EATOM  =      9290.41257002
  ---------------------------------------------------
  free energy    TOTEN  =      -320.11690915 eV

  energy without entropy =     -320.11690915  energy(sigma->0) =     -320.11690915
  exchange ACFDT corr.  =        -0.00000000  see jH, gK, PRB 81, 115126


--------------------------------------------------------------------------------------------------------




----------------------------------------- Iteration    1(   8)  ---------------------------------------


    POTLOK:  cpu time    0.9279: real time    0.9271
    SETDIJ:  cpu time    0.1450: real time    0.1450
    TRIAL :  cpu time 2274.8872: real time 2273.6120
    CORREC:  cpu time    0.0020: real time    0.0016
    CHARGE:  cpu time    0.4549: real time    0.4555
    --------------------------------------------
      LOOP:  cpu time 2276.4199: real time 2275.2014

 eigenvalue-minimisations  :     0
 total energy-change (2. order) :-0.2853482E-02  (-0.1694267E-02)
 number of electron     244.0000072 magnetization 
 augmentation part      -19.3326773 magnetization 

 DIPCOR: dipole corrections for dipol
 direction  3 min pos   237,
 dipolmoment           0.000000      0.000000     -0.036058 electrons x Angstroem
 Tr[quadrupol]    -10746.147580

 energy correction for charged system         0.000000 eV
 dipol+quadrupol energy correction           -0.000048 eV
 added-field ion interaction         -0.071061 eV  (added to PSCEN)


 Free energy of the ion-electron system (eV)
  ---------------------------------------------------
  alpha Z        PSCENC =       222.99566512
  Ewald energy   TEWEN  =     75770.78259834
  -Hartree energ DENC   =    -84439.21775110
  -exchange      EXHF   =       382.03855554
  -V(xc)+E(xc)   XCENC  =      -347.07277034
  PAW double counting   =     24207.85556897   -23455.41640813
  entropy T*S    EENTRO =        -0.00000000
  eigenvalues    EBANDS =     -1952.49779106
  atomic energy  EATOM  =      9290.41257002
  ---------------------------------------------------
  free energy    TOTEN  =      -320.11976263 eV

  energy without entropy =     -320.11976263  energy(sigma->0) =     -320.11976263
  exchange ACFDT corr.  =        -0.00000000  see jH, gK, PRB 81, 115126


--------------------------------------------------------------------------------------------------------




----------------------------------------- Iteration    1(   9)  ---------------------------------------


    POTLOK:  cpu time    0.9259: real time    0.9248
    SETDIJ:  cpu time    0.1950: real time    0.1954
    TRIAL :  cpu time 2277.2588: real time 2276.0255
    CORREC:  cpu time    0.0020: real time    0.0016
    CHARGE:  cpu time    0.4549: real time    0.4549
    --------------------------------------------
      LOOP:  cpu time 2278.8416: real time 2277.6183

 eigenvalue-minimisations  :     0
 total energy-change (2. order) :-0.1277965E-02  (-0.8210055E-03)
 number of electron     244.0000072 magnetization 
 augmentation part      -19.3318381 magnetization 

 DIPCOR: dipole corrections for dipol
 direction  3 min pos   237,
 dipolmoment           0.000000      0.000000     -0.015812 electrons x Angstroem
 Tr[quadrupol]    -10746.119858

 energy correction for charged system         0.000000 eV
 dipol+quadrupol energy correction           -0.000009 eV
 added-field ion interaction         -0.031160 eV  (added to PSCEN)


 Free energy of the ion-electron system (eV)
  ---------------------------------------------------
  alpha Z        PSCENC =       223.03560407
  Ewald energy   TEWEN  =     75770.78259834
  -Hartree energ DENC   =    -84438.93005858
  -exchange      EXHF   =       382.05042965
  -V(xc)+E(xc)   XCENC  =      -347.07575003
  PAW double counting   =     24170.15497445   -23417.72244915
  entropy T*S    EENTRO =        -0.00000000
  eigenvalues    EBANDS =     -1952.82895937
  atomic energy  EATOM  =      9290.41257002
  ---------------------------------------------------
  free energy    TOTEN  =      -320.12104059 eV

  energy without entropy =     -320.12104059  energy(sigma->0) =     -320.12104059
  exchange ACFDT corr.  =        -0.00000000  see jH, gK, PRB 81, 115126


--------------------------------------------------------------------------------------------------------




----------------------------------------- Iteration    1(  10)  ---------------------------------------


    POTLOK:  cpu time    0.9279: real time    0.9285
    SETDIJ:  cpu time    0.1810: real time    0.1803
    TRIAL :  cpu time 2278.0607: real time 2276.7889
    CORREC:  cpu time    0.0010: real time    0.0016
    CHARGE:  cpu time    0.4569: real time    0.4570
    --------------------------------------------
      LOOP:  cpu time 2279.6314: real time 2278.3801

 eigenvalue-minimisations  :     0
 total energy-change (2. order) :-0.6437320E-03  (-0.4203220E-03)
 number of electron     244.0000072 magnetization 
 augmentation part      -19.3307943 magnetization 

 DIPCOR: dipole corrections for dipol
 direction  3 min pos   237,
 dipolmoment           0.000000      0.000000     -0.033354 electrons x Angstroem
 Tr[quadrupol]    -10746.137106

 energy correction for charged system         0.000000 eV
 dipol+quadrupol energy correction           -0.000041 eV
 added-field ion interaction         -0.065731 eV  (added to PSCEN)


 Free energy of the ion-electron system (eV)
  ---------------------------------------------------
  alpha Z        PSCENC =       223.00100133
  Ewald energy   TEWEN  =     75770.78259834
  -Hartree energ DENC   =    -84439.17141039
  -exchange      EXHF   =       382.06217690
  -V(xc)+E(xc)   XCENC  =      -347.07349970
  PAW double counting   =     24155.80086992   -23403.36938606
  entropy T*S    EENTRO =        -0.00000000
  eigenvalues    EBANDS =     -1952.56660469
  atomic energy  EATOM  =      9290.41257002
  ---------------------------------------------------
  free energy    TOTEN  =      -320.12168433 eV

  energy without entropy =     -320.12168433  energy(sigma->0) =     -320.12168433
  exchange ACFDT corr.  =        -0.00000000  see jH, gK, PRB 81, 115126


--------------------------------------------------------------------------------------------------------




----------------------------------------- Iteration    1(  11)  ---------------------------------------


    POTLOK:  cpu time    0.9289: real time    0.9279
    SETDIJ:  cpu time    0.1890: real time    0.1893
    TRIAL :  cpu time 2273.6384: real time 2272.3984
    CORREC:  cpu time    0.0020: real time    0.0016
    CHARGE:  cpu time    0.4569: real time    0.4574
    --------------------------------------------
      LOOP:  cpu time 2275.2191: real time 2273.9881

 eigenvalue-minimisations  :     0
 total energy-change (2. order) :-0.3453627E-03  (-0.2303936E-03)
 number of electron     244.0000072 magnetization 
 augmentation part      -19.3297924 magnetization 

 DIPCOR: dipole corrections for dipol
 direction  3 min pos   237,
 dipolmoment           0.000000      0.000000     -0.022770 electrons x Angstroem
 Tr[quadrupol]    -10746.096132

 energy correction for charged system         0.000000 eV
 dipol+quadrupol energy correction           -0.000019 eV
 added-field ion interaction         -0.044874 eV  (added to PSCEN)


 Free energy of the ion-electron system (eV)
  ---------------------------------------------------
  alpha Z        PSCENC =       223.02188067
  Ewald energy   TEWEN  =     75770.78259834
  -Hartree energ DENC   =    -84438.51710862
  -exchange      EXHF   =       382.07111282
  -V(xc)+E(xc)   XCENC  =      -347.07091680
  PAW double counting   =     24152.91608963   -23400.48543416
  entropy T*S    EENTRO =        -0.00000000
  eigenvalues    EBANDS =     -1953.25282159
  atomic energy  EATOM  =      9290.41257002
  ---------------------------------------------------
  free energy    TOTEN  =      -320.12202969 eV

  energy without entropy =     -320.12202969  energy(sigma->0) =     -320.12202969
  exchange ACFDT corr.  =        -0.00000000  see jH, gK, PRB 81, 115126


--------------------------------------------------------------------------------------------------------




----------------------------------------- Iteration    1(  12)  ---------------------------------------


    POTLOK:  cpu time    0.9289: real time    0.9292
    SETDIJ:  cpu time    0.1890: real time    0.1884
    TRIAL :  cpu time 2272.4715: real time 2271.2103
    CORREC:  cpu time    0.0010: real time    0.0016
    CHARGE:  cpu time    0.4549: real time    0.4549
    --------------------------------------------
      LOOP:  cpu time 2274.0493: real time 2272.8027

 eigenvalue-minimisations  :     0
 total energy-change (2. order) :-0.2003466E-03  (-0.1354924E-03)
 number of electron     244.0000072 magnetization 
 augmentation part      -19.3293919 magnetization 

 DIPCOR: dipole corrections for dipol
 direction  3 min pos   237,
 dipolmoment           0.000000      0.000000     -0.027427 electrons x Angstroem
 Tr[quadrupol]    -10746.126708

 energy correction for charged system         0.000000 eV
 dipol+quadrupol energy correction           -0.000028 eV
 added-field ion interaction         -0.054052 eV  (added to PSCEN)


 Free energy of the ion-electron system (eV)
  ---------------------------------------------------
  alpha Z        PSCENC =       223.01269424
  Ewald energy   TEWEN  =     75770.78259834
  -Hartree energ DENC   =    -84439.04786707
  -exchange      EXHF   =       382.07737847
  -V(xc)+E(xc)   XCENC  =      -347.06857656
  PAW double counting   =     24153.98630782   -23401.55707249
  entropy T*S    EENTRO =        -0.00000000
  eigenvalues    EBANDS =     -1952.72026281
  atomic energy  EATOM  =      9290.41257002
  ---------------------------------------------------
  free energy    TOTEN  =      -320.12223003 eV

  energy without entropy =     -320.12223003  energy(sigma->0) =     -320.12223003
  exchange ACFDT corr.  =        -0.00000000  see jH, gK, PRB 81, 115126


--------------------------------------------------------------------------------------------------------




----------------------------------------- Iteration    1(  13)  ---------------------------------------


    POTLOK:  cpu time    0.9279: real time    0.9282
    SETDIJ:  cpu time    0.1920: real time    0.1917
    TRIAL :  cpu time 2270.7318: real time 2269.5345
    CORREC:  cpu time    0.0010: real time    0.0016
    CHARGE:  cpu time    0.4549: real time    0.4546
    --------------------------------------------
      LOOP:  cpu time 2272.3116: real time 2271.1248

 eigenvalue-minimisations  :     0
 total energy-change (2. order) :-0.1243059E-03  (-0.8881619E-04)
 number of electron     244.0000072 magnetization 
 augmentation part      -19.3292640 magnetization 

 DIPCOR: dipole corrections for dipol
 direction  3 min pos   237,
 dipolmoment           0.000000      0.000000     -0.025774 electrons x Angstroem
 Tr[quadrupol]    -10746.117304

 energy correction for charged system         0.000000 eV
 dipol+quadrupol energy correction           -0.000025 eV
 added-field ion interaction         -0.050794 eV  (added to PSCEN)


 Free energy of the ion-electron system (eV)
  ---------------------------------------------------
  alpha Z        PSCENC =       223.01595542
  Ewald energy   TEWEN  =     75770.78259834
  -Hartree energ DENC   =    -84438.90566087
  -exchange      EXHF   =       382.08170578
  -V(xc)+E(xc)   XCENC  =      -347.06687775
  PAW double counting   =     24155.34030639   -23402.91178434
  entropy T*S    EENTRO =        -0.00000000
  eigenvalues    EBANDS =     -1952.87116734
  atomic energy  EATOM  =      9290.41257002
  ---------------------------------------------------
  free energy    TOTEN  =      -320.12235434 eV
[...]
     85      -5.2807      2.00000
     86      -5.2767      2.00000
     87      -5.1720      2.00000
     88      -5.1719      2.00000
     89      -4.7808      2.00000
     90      -4.7755      2.00000
     91      -4.4396      2.00000
     92      -4.4386      2.00000
     93      -4.3332      2.00000
     94      -4.3291      2.00000
     95      -4.3029      2.00000
     96      -4.2983      2.00000
     97      -4.2120      2.00000
     98      -4.2033      2.00000
     99      -4.1806      2.00000
    100      -4.1799      2.00000
    101      -4.1511      2.00000
    102      -4.1451      2.00000
    103      -3.8150      2.00000
    104      -3.8112      2.00000
    105      -3.3793      2.00000
    106      -3.3751      2.00000
    107      -3.3102      2.00000
    108      -3.3057      2.00000
    109      -3.2106      2.00000
    110      -3.2072      2.00000
    111      -3.1641      2.00000
    112      -3.1603      2.00000
    113      -2.8746      2.00000
    114      -2.8647      2.00000
    115      -2.8130      2.00000
    116      -2.8114      2.00000
    117      -2.5545      2.00000
    118      -2.5410      2.00000
    119      -2.5278      2.00000
    120      -2.5218      2.00000
    121      -2.5192      2.00000
    122      -2.5056      2.00000
    123       0.0635      0.00000
    124       0.0647      0.00000
    125       0.2399      0.00000
    126       0.2408      0.00000
    127       0.2455      0.00000
    128       0.2495      0.00000
    129       0.3773      0.00000
    130       0.3809      0.00000
    131       0.3968      0.00000
    132       0.3986      0.00000
    133       0.4778      0.00000
    134       0.4780      0.00000
    135       0.4930      0.00000
    136       0.4957      0.00000
    137       0.8062      0.00000
    138       0.8206      0.00000
    139       0.8665      0.00000
    140       0.8822      0.00000
    141       0.8878      0.00000
    142       0.8959      0.00000
    143       0.9036      0.00000
    144       0.9133      0.00000
    145       1.0230      0.00000
    146       1.0234      0.00000
    147       1.2074      0.00000
    148       1.2633      0.00000
    149       1.3045      0.00000
    150       1.3688      0.00000
    151       1.4537      0.00000
    152       1.4733      0.00000
    153       1.7849      0.00000
    154       1.7980      0.00000
    155       1.8097      0.00000
    156       1.8228      0.00000
    157       2.0528      0.00000
    158       2.0966      0.00000
    159       2.1051      0.00000
    160       2.1515      0.00000
    161       2.3395      0.00000
    162       2.3710      0.00000
    163       2.5043      0.00000
    164       2.5100      0.00000
    165       2.5316      0.00000
    166       2.5439      0.00000
    167       2.6384      0.00000
    168       2.6602      0.00000


--------------------------------------------------------------------------------------------------------


 soft charge-density along one line, spin component           1
         0         1         2         3         4         5         6         7         8         9
 total charge-density along one line
 
 pseudopotential strength for first ion, spin component:           1
 29.142  36.355   0.000   0.032  -0.029   0.000   0.050  -0.046
 36.355  45.357   0.000   0.040  -0.037   0.000   0.062  -0.057
  0.000   0.000   6.442  -0.000  -0.000   9.967  -0.000  -0.000
  0.032   0.040  -0.000   6.435   0.005  -0.000   9.957   0.008
 -0.029  -0.037  -0.000   0.005   6.438  -0.000   0.008   9.961
  0.000   0.000   9.967  -0.000  -0.000  15.438  -0.000  -0.000
  0.050   0.062  -0.000   9.957   0.008  -0.000  15.422   0.013
 -0.046  -0.057  -0.000   0.008   9.961  -0.000   0.013  15.429
 total augmentation occupancy for first ion, spin component:           1
 10.339  -5.829  -0.000   1.971  -2.284   0.000  -0.697   0.857
 -5.829   3.861   0.000  -1.708   1.940   0.000   0.530  -0.644
 -0.000   0.000   3.916  -0.000   0.000  -1.276   0.000  -0.000
  1.971  -1.708  -0.000   3.688   0.182  -0.000  -1.084  -0.172
 -2.284   1.940   0.000   0.182   3.834   0.000  -0.170  -1.177
  0.000   0.000  -1.276  -0.000   0.000   0.438  -0.000   0.000
 -0.697   0.530   0.000  -1.084  -0.170  -0.000   0.352   0.082
  0.857  -0.644  -0.000  -0.172  -1.177   0.000   0.082   0.393


------------------------ aborting loop because EDIFF is reached ----------------------------------------


 


 total charge     
 
# of ion     s       p       d       tot
----------------------------------------
  1        1.079   1.381   0.000   2.460
  2        1.077   1.384   0.000   2.461
  3        1.078   1.382   0.000   2.460
  4        1.078   1.382   0.000   2.460
  5        1.079   1.382   0.000   2.461
  6        1.081   1.375   0.000   2.457
  7        1.082   1.372   0.000   2.454
  8        1.081   1.376   0.000   2.457
  9        1.081   1.374   0.000   2.455
 10        1.079   1.383   0.000   2.462
 11        1.080   1.378   0.000   2.458
 12        1.081   1.373   0.000   2.454
 13        1.081   1.375   0.000   2.457
 14        1.083   1.371   0.000   2.454
 15        1.080   1.382   0.000   2.462
 16        1.078   1.382   0.000   2.460
 17        1.078   1.382   0.000   2.460
 18        1.078   1.383   0.000   2.461
 19        1.078   1.382   0.000   2.460
 20        1.080   1.380   0.000   2.460
 21        0.414   0.540   4.329   5.283
 22        0.414   0.541   4.330   5.284
 23        0.414   0.541   4.334   5.288
 24        0.414   0.541   4.331   5.285
 25        0.413   0.540   4.330   5.284
 26        0.413   0.540   4.331   5.285
 27        0.413   0.539   4.325   5.276
 28        0.413   0.539   4.328   5.280
 29        1.491   2.357   0.062   3.910
 30        1.491   2.355   0.062   3.908
 31        1.491   2.356   0.062   3.909
 32        1.491   2.356   0.062   3.909
 33        1.491   2.355   0.062   3.908
 34        1.491   2.356   0.062   3.910
 35        1.492   2.356   0.062   3.909
 36        1.491   2.355   0.062   3.909
 37        1.495   2.345   0.063   3.903
 38        1.494   2.354   0.065   3.914
 39        1.494   2.351   0.064   3.909
 40        1.495   2.348   0.064   3.907
 41        1.493   2.356   0.065   3.914
 42        1.494   2.348   0.062   3.904
 43        1.494   2.352   0.062   3.908
 44        1.493   2.355   0.063   3.911
------------------------------------------------
tot       48.782  69.556  35.641 153.980
 
    FORLOC:  cpu time    0.0710: real time    0.0709
    FORHF :  cpu time 2743.7719: real time 2742.2239
    FORNL :  cpu time    9.5835: real time    9.5777
    FORCOR:  cpu time    1.1618: real time    1.1610
    OFIELD:  cpu time    0.0010: real time    0.0012

 VOLUME and BASIS-vectors are now :
 -----------------------------------------------------------------------------
  energy-cutoff  :      500.00
  volume of cell :     2456.97
      direct lattice vectors                 reciprocal lattice vectors
    22.734163284  0.000000000  0.000000000     0.043986664  0.000000000  0.000000000
     0.000000000  3.298672199  0.000000000     0.000000000  0.303152281  0.000000000
     0.000000000  0.000000000 32.762825559     0.000000000  0.000000000  0.030522398

  length of vectors
    22.734163284  3.298672199 32.762825559     0.043986664  0.303152281  0.030522398


 FORCES acting on ions:
    Electron-Ion                     Ewald-Force                    Non-Local-Force
 -----------------------------------------------------------------------------------------------
   -.444E+02 -.795E-06 0.757E+03   0.497E+02 -.246E-07 -.763E+03   -.540E+01 0.000E+00 0.615E+01
   -.395E+02 -.106E-04 0.734E+03   0.447E+02 -.251E-07 -.740E+03   -.531E+01 0.000E+00 0.633E+01
   -.309E+02 -.620E-05 0.739E+03   0.360E+02 -.250E-07 -.746E+03   -.505E+01 0.000E+00 0.653E+01
   -.200E+02 0.810E-05 0.738E+03   0.247E+02 -.252E-07 -.745E+03   -.483E+01 0.000E+00 0.674E+01
   -.255E+02 0.385E-05 0.756E+03   0.303E+02 -.247E-07 -.762E+03   -.477E+01 0.000E+00 0.661E+01
   0.302E+02 0.986E-05 0.364E+03   -.360E+02 -.251E-07 -.358E+03   0.588E+01 0.000E+00 -.608E+01
   0.383E+02 0.902E-05 0.343E+03   -.437E+02 -.245E-07 -.337E+03   0.547E+01 0.000E+00 -.614E+01
   0.311E+02 0.406E-05 0.345E+03   -.364E+02 -.252E-07 -.339E+03   0.531E+01 0.000E+00 -.639E+01
   0.290E+02 -.121E-04 0.343E+03   -.339E+02 -.248E-07 -.336E+03   0.499E+01 0.000E+00 -.661E+01
   0.262E+02 -.104E-04 0.362E+03   -.311E+02 -.253E-07 -.356E+03   0.494E+01 0.000E+00 -.660E+01
   -.291E+02 -.149E-04 0.346E+03   0.337E+02 0.248E-07 -.340E+03   -.467E+01 0.000E+00 -.673E+01
   -.291E+02 -.892E-05 0.343E+03   0.343E+02 0.250E-07 -.337E+03   -.527E+01 0.000E+00 -.640E+01
   -.342E+02 0.472E-05 0.346E+03   0.394E+02 0.250E-07 -.339E+03   -.537E+01 0.000E+00 -.624E+01
   -.363E+02 0.882E-05 0.353E+03   0.420E+02 0.246E-07 -.347E+03   -.581E+01 0.000E+00 -.602E+01
   -.263E+02 0.744E-05 0.370E+03   0.316E+02 0.256E-07 -.363E+03   -.543E+01 0.000E+00 -.643E+01
   0.178E+02 0.914E-05 0.739E+03   -.225E+02 0.250E-07 -.746E+03   0.469E+01 0.000E+00 0.682E+01
   0.287E+02 0.662E-05 0.738E+03   -.337E+02 0.251E-07 -.745E+03   0.501E+01 0.000E+00 0.659E+01
   0.384E+02 -.902E-05 0.737E+03   -.436E+02 0.251E-07 -.743E+03   0.519E+01 0.000E+00 0.636E+01
   0.428E+02 -.743E-05 0.746E+03   -.482E+02 0.250E-07 -.752E+03   0.545E+01 0.000E+00 0.615E+01
   0.327E+02 -.458E-05 0.763E+03   -.377E+02 0.245E-07 -.770E+03   0.502E+01 0.000E+00 0.644E+01
   0.779E+01 0.125E-06 -.452E+03   -.774E+01 0.318E-07 0.452E+03   -.442E-01 0.000E+00 -.488E-01
   0.875E+01 -.952E-07 -.463E+03   -.881E+01 -.317E-07 0.463E+03   0.577E-01 0.000E+00 -.237E-01
   0.263E+01 0.138E-06 -.471E+03   -.263E+01 0.319E-07 0.471E+03   0.395E-02 0.000E+00 -.166E+00
   -.218E+01 0.373E-07 -.468E+03   0.219E+01 -.318E-07 0.468E+03   -.269E-02 0.000E+00 -.301E-01
   -.629E+01 -.261E-06 -.462E+03   0.622E+01 0.317E-07 0.462E+03   0.709E-01 0.000E+00 -.667E-01
   -.786E+01 -.103E-06 -.454E+03   0.790E+01 -.318E-07 0.454E+03   -.296E-01 0.000E+00 -.803E-01
   -.325E+01 -.223E-06 -.442E+03   0.321E+01 0.316E-07 0.442E+03   0.328E-01 0.000E+00 0.386E-01
   0.358E+01 -.322E-07 -.444E+03   -.361E+01 -.317E-07 0.444E+03   0.295E-01 0.000E+00 -.505E-01
   0.854E+01 -.926E-06 -.948E+03   -.857E+01 0.182E-07 0.951E+03   0.329E-01 0.000E+00 -.265E+01
   0.446E+01 -.521E-06 -.955E+03   -.448E+01 -.181E-07 0.957E+03   0.147E-01 0.000E+00 -.268E+01
   -.182E+01 -.362E-06 -.955E+03   0.182E+01 0.181E-07 0.957E+03   -.122E-01 0.000E+00 -.266E+01
   -.732E+01 -.806E-06 -.952E+03   0.733E+01 -.182E-07 0.954E+03   -.143E-01 0.000E+00 -.266E+01
   -.871E+01 -.542E-06 -.946E+03   0.873E+01 0.181E-07 0.949E+03   -.304E-01 0.000E+00 -.268E+01
   -.572E+01 -.786E-06 -.939E+03   0.572E+01 -.182E-07 0.941E+03   -.902E-02 0.000E+00 -.266E+01
   0.126E+01 0.157E-06 -.937E+03   -.128E+01 0.183E-07 0.940E+03   0.164E-01 0.000E+00 -.267E+01
   0.756E+01 0.268E-06 -.941E+03   -.758E+01 -.182E-07 0.944E+03   0.242E-01 0.000E+00 -.268E+01
   0.101E+02 -.218E-05 0.363E+02   -.101E+02 0.186E-07 -.386E+02   -.259E-01 0.000E+00 0.276E+01
   0.724E+00 -.441E-06 0.173E+02   -.716E+00 -.194E-07 -.194E+02   -.249E-01 0.000E+00 0.251E+01
   0.367E+01 -.139E-05 0.208E+02   -.376E+01 0.192E-07 -.231E+02   0.900E-01 0.000E+00 0.265E+01
   -.931E+01 -.199E-05 0.284E+02   0.931E+01 -.189E-07 -.307E+02   -.106E-02 0.000E+00 0.274E+01
   -.714E+01 0.149E-06 0.279E+02   0.708E+01 0.190E-07 -.301E+02   0.595E-01 0.000E+00 0.253E+01
   -.648E+01 -.135E-05 0.482E+02   0.644E+01 -.182E-07 -.506E+02   0.429E-01 0.000E+00 0.279E+01
   -.125E+01 0.162E-05 0.485E+02   0.130E+01 0.182E-07 -.508E+02   -.561E-01 0.000E+00 0.271E+01
   0.776E+01 0.214E-05 0.382E+02   -.779E+01 -.186E-07 -.403E+02   0.280E-01 0.000E+00 0.257E+01
 -----------------------------------------------------------------------------------------------
   -.299E+00 -.214E-04 -.536E+00   -.444E-13 -.821E-13 -.540E-12   0.293E+00 0.000E+00 0.564E+00
 
 
 POSITION                                       TOTAL-FORCE (eV/Angst)
 -----------------------------------------------------------------------------------
      0.03331      1.64934      0.14088        -0.347022      0.000000      0.330958
      4.58153      1.64934      0.47662        -0.339882      0.000000      0.327409
      9.09150      1.64934      0.53626        -0.320419      0.000000      0.333619
     13.62589      1.64934      0.46277        -0.303598      0.000000      0.354653
     18.12374      1.64934      0.18183        -0.302752      0.000000      0.356583
      0.65286      1.64934      2.32130         0.390091      0.000000     -0.396422
      5.28800      1.64934      2.62973         0.392449      0.000000     -0.427072
      9.88092      1.64934      2.65869         0.369320      0.000000     -0.440625
     14.49869      1.64934      2.55427         0.357928      0.000000     -0.467577
     19.00376      1.64934      2.26528         0.327103      0.000000     -0.457314
      2.15115      0.00000      2.45777        -0.329585      0.000000     -0.475767
      6.80202      0.00000      2.65682        -0.373734      0.000000     -0.439543
     11.38952      0.00000      2.64213        -0.376477      0.000000     -0.434058
     16.00887      0.00000      2.45678        -0.404453      0.000000     -0.414048
     20.49674      0.00000      2.21550        -0.348421      0.000000     -0.427925
      3.09118      0.00000      0.39809         0.298204      0.000000      0.359793
      7.59760      0.00000      0.53488         0.313176      0.000000      0.339892
     12.13392      0.00000      0.50322         0.330482      0.000000      0.327586
     16.62950      0.00000      0.27422         0.348394      0.000000      0.328810
     21.26499      0.00000      0.08780         0.321385      0.000000      0.349084
      1.90965      0.00000      7.45069         0.010773      0.000000      0.008574
      4.74453      1.64934      7.48634         0.015077      0.000000      0.004876
      7.58450      0.00000      7.51245         0.012196      0.000000     -0.006252
     10.42307      1.64934      7.49735         0.013944      0.000000      0.019174
     13.25899      0.00000      7.47556         0.015943      0.000000      0.006817
     16.10653      1.64934      7.44578         0.010277      0.000000      0.004641
     18.94880      0.00000      7.41318         0.007447      0.000000      0.021640
     21.79573      1.64934      7.42216         0.003807      0.000000      0.012651
      3.78277      0.00000      9.15305        -0.000022      0.000000     -0.539919
      6.62869      1.64934      9.18434        -0.001696      0.000000     -0.550850
      9.48629      0.00000      9.18231        -0.010109      0.000000     -0.545744
     12.33069      1.64934      9.16291        -0.010817      0.000000     -0.546263
     15.17644      0.00000      9.13375        -0.013632      0.000000     -0.551775
     18.01815      1.64934      9.09958        -0.008979      0.000000     -0.543698
     20.84431      0.00000      9.09483        -0.002115      0.000000     -0.553254
      0.94515      1.64934      9.11724         0.001494      0.000000     -0.551479
      3.82511      0.00000      5.78700        -0.015131      0.000000      0.679436
      6.65245      1.64934      5.83132        -0.020571      0.000000      0.647550
      9.47136      0.00000      5.82317         0.000335      0.000000      0.660745
     12.30442      1.64934      5.80013        -0.001766      0.000000      0.669313
     15.13936      0.00000      5.78496         0.003200      0.000000      0.639076
     17.98666      1.64934      5.73828         0.000029      0.000000      0.678608
     20.85319      0.00000      5.73956        -0.010014      0.000000      0.662821
      0.97854      1.64934      5.76600        -0.001861      0.000000      0.645274
 -----------------------------------------------------------------------------------
    total drift:                               -0.001521     -0.000021     -0.000061


--------------------------------------------------------------------------------------------------------



  FREE ENERGIE OF THE ION-ELECTRON SYSTEM (eV)
  ---------------------------------------------------
  free  energy   TOTEN  =      -320.12280603 eV

  energy  without entropy=     -320.12280603  energy(sigma->0) =     -320.12280603
 


--------------------------------------------------------------------------------------------------------


    POTLOK:  cpu time    1.1598: real time    1.1593


--------------------------------------------------------------------------------------------------------


 writing wavefunctions
     LOOP+:  cpu time**********: real time**********
 vacuum level on the upper side and lower side of the slab         3.604         3.665
    4ORBIT:  cpu time    0.0000: real time    0.0001
 


 total charge     
 
# of ion     s       p       d       tot
----------------------------------------
  1        1.079   1.381   0.000   2.460
  2        1.077   1.384   0.000   2.461
  3        1.078   1.382   0.000   2.460
  4        1.078   1.382   0.000   2.460
  5        1.079   1.382   0.000   2.461
  6        1.081   1.375   0.000   2.457
  7        1.082   1.372   0.000   2.454
  8        1.081   1.376   0.000   2.457
  9        1.081   1.374   0.000   2.455
 10        1.079   1.383   0.000   2.462
 11        1.080   1.378   0.000   2.458
 12        1.081   1.373   0.000   2.454
 13        1.081   1.375   0.000   2.457
 14        1.083   1.371   0.000   2.454
 15        1.080   1.382   0.000   2.462
 16        1.078   1.382   0.000   2.460
 17        1.078   1.382   0.000   2.460
 18        1.078   1.383   0.000   2.461
 19        1.078   1.382   0.000   2.460
 20        1.080   1.380   0.000   2.460
 21        0.414   0.540   4.329   5.283
 22        0.414   0.541   4.330   5.284
 23        0.414   0.541   4.334   5.288
 24        0.414   0.541   4.331   5.285
 25        0.413   0.540   4.330   5.284
 26        0.413   0.540   4.331   5.285
 27        0.413   0.539   4.325   5.276
 28        0.413   0.539   4.328   5.280
 29        1.491   2.357   0.062   3.910
 30        1.491   2.355   0.062   3.908
 31        1.491   2.356   0.062   3.909
 32        1.491   2.356   0.062   3.909
 33        1.491   2.355   0.062   3.908
 34        1.491   2.356   0.062   3.910
 35        1.492   2.356   0.062   3.909
 36        1.491   2.355   0.062   3.909
 37        1.495   2.345   0.063   3.903
 38        1.494   2.354   0.065   3.914
 39        1.494   2.351   0.064   3.909
 40        1.495   2.348   0.064   3.907
 41        1.493   2.356   0.065   3.914
 42        1.494   2.348   0.062   3.904
 43        1.494   2.352   0.062   3.908
 44        1.493   2.355   0.063   3.911
------------------------------------------------
tot       48.782  69.556  35.641 153.980
 

 total amount of memory used by VASP on root node  3535550. kBytes
========================================================================

   base      :      30000. kBytes
   nonl-proj :    1369537. kBytes
   fftplans  :      10791. kBytes
   grid      :      33856. kBytes
   one-center:        684. kBytes
   HF        :        194. kBytes
   nonlr-proj:      11680. kBytes
   wavefun   :    2078808. kBytes
 
  
  
 General timing and accounting informations for this job:
 ========================================================
  
                  Total CPU time used (sec):   110126.688
                            User time (sec):   109878.289
                          System time (sec):      248.402
                         Elapsed time (sec):   110141.538
  
                   Maximum memory used (kb):     3773188.
                   Average memory used (kb):           0.
  
                          Minor page faults:     62212270
                          Major page faults:           19
                 Voluntary context switches:        11172
