    3    3    1    1
  0.9062380E+02  0.3154600E-09  0.3154600E-09  0.3154600E-08  0.5000000E-15
  1.000000000000000E-004
  CAR 
 MoS2                                    
     18    130     20
 
  0.0000000E+00  0.0000000E+00  0.0000000E+00  0.7692308E-02
    1      -17.851066   1.000000
    2      -16.665983   1.000000
    3       -9.369672   1.000000
    4       -6.245273   1.000000
    5       -6.245262   1.000000
    6       -5.584959   1.000000
    7       -5.119621   1.000000
    8       -5.119588   1.000000
    9       -3.869042   1.000000
   10       -0.872014   0.000000
   11       -0.871985   0.000000
   12       -0.682080   0.000000
   13       -0.682070   0.000000
   14        1.674793   0.000000
   15        1.815273   0.000000
   16        2.209563   0.000000
   17        2.501605   0.000000
   18        2.786114   0.000000
   19        3.101591   0.000000
   20        3.485268   0.000000
 
  0.1250000E-01  0.0000000E+00  0.0000000E+00  0.7692308E-02
    1      -17.848764   1.000000
    2      -16.664845   1.000000
    3       -9.366894   1.000000
    4       -6.250871   1.000000
    5       -6.242720   1.000000
    6       -5.600823   1.000000
    7       -5.123677   1.000000
    8       -5.107246   1.000000
    9       -3.869763   1.000000
   10       -0.876347   0.000000
   11       -0.867761   0.000000
   12       -0.690019   0.000000
   13       -0.684887   0.000000
   14        1.679302   0.000000
   15        1.818435   0.000000
   16        2.212905   0.000000
   17        2.504741   0.000000
   18        2.792896   0.000000
   19        3.108869   0.000000
   20        3.488360   0.000000
 
  0.2500000E-01  0.0000000E+00  0.0000000E+00  0.7692308E-02
    1      -17.841862   1.000000
    2      -16.661431   1.000000
    3       -9.358585   1.000000
    4       -6.267572   1.000000
    5       -6.235091   1.000000
    6       -5.643936   1.000000
    7       -5.135790   1.000000
    8       -5.074732   1.000000
    9       -3.871974   1.000000
   10       -0.889035   0.000000
   11       -0.855154   0.000000
   12       -0.713442   0.000000
   13       -0.693257   0.000000
   14        1.692623   0.000000
   15        1.827912   0.000000
   16        2.222900   0.000000
   17        2.514149   0.000000
   18        2.812589   0.000000
   19        3.131162   0.000000
   20        3.497634   0.000000
 
  0.3750000E-01  0.0000000E+00  0.0000000E+00  0.7692308E-02
    1      -17.830378   1.000000
    2      -16.655753   1.000000
    3       -9.344806   1.000000
    4       -6.295062   1.000000
    5       -6.222410   1.000000
    6       -5.705679   1.000000
    7       -5.155705   1.000000
    8       -5.030908   1.000000
    9       -3.875822   1.000000
   10       -0.909146   0.000000
   11       -0.834444   0.000000
   12       -0.751182   0.000000
   13       -0.707036   0.000000
   14        1.714197   0.000000
   15        1.843681   0.000000
   16        2.239469   0.000000
   17        2.529823   0.000000
   18        2.843348   0.000000
   19        3.169710   0.000000
   20        3.513079   0.000000
 
  0.5000000E-01  0.0000000E+00  0.0000000E+00  0.7692308E-02
    1      -17.814350   1.000000
    2      -16.647830   1.000000
    3       -9.325683   1.000000
    4       -6.332852   1.000000
    5       -6.204759   1.000000
    6       -5.779138   1.000000
    7       -5.183054   1.000000
    8       -4.983070   1.000000
    9       -3.881565   1.000000
   10       -0.935209   0.000000
   11       -0.806076   0.000000
   12       -0.801483   0.000000
   13       -0.725983   0.000000
   14        1.743256   0.000000
   15        1.865701   0.000000
   16        2.262501   0.000000
   17        2.551753   0.000000
   18        2.882554   0.000000
   19        3.226097   0.000000
   20        3.534681   0.000000
 
  0.6250000E-01  0.0000000E+00  0.0000000E+00  0.7692308E-02
    1      -17.793825   1.000000
    2      -16.637688   1.000000
    3       -9.301382   1.000000
    4       -6.380269   1.000000
    5       -6.182194   1.000000
    6       -5.860024   1.000000
    7       -5.217337   1.000000
    8       -4.935965   1.000000
    9       -3.889542   1.000000
   10       -0.965336   0.000000
   11       -0.862167   0.000000
   12       -0.770627   0.000000
   13       -0.749757   0.000000
   14        1.778986   0.000000
   15        1.893927   0.000000
   16        2.291883   0.000000
   17        2.579928   0.000000
   18        2.927592   0.000000
   19        3.301436   0.000000
   20        3.562417   0.000000
 
  0.7500000E-01  0.0000000E+00  0.0000000E+00  0.7692308E-02
    1      -17.768871   1.000000
    2      -16.625361   1.000000
    3       -9.272134   1.000000
    4       -6.436526   1.000000
    5       -6.154835   1.000000
    6       -5.945873   1.000000
    7       -5.257961   1.000000
    8       -4.892649   1.000000
    9       -3.900195   1.000000
   10       -0.997366   0.000000
   11       -0.930856   0.000000
   12       -0.777962   0.000000
   13       -0.728788   0.000000
   14        1.820663   0.000000
   15        1.928300   0.000000
   16        2.327516   0.000000
   17        2.614334   0.000000
   18        2.976650   0.000000
   19        3.395582   0.000000
   20        3.596262   0.000000
 
  0.8750000E-01  0.0000000E+00  0.0000000E+00  0.7692308E-02
    1      -17.739563   1.000000
    2      -16.610892   1.000000
    3       -9.238232   1.000000
    4       -6.500689   1.000000
    5       -6.122807   1.000000
    6       -6.035192   1.000000
    7       -5.304274   1.000000
    8       -4.855193   1.000000
    9       -3.914026   1.000000
   10       -1.028990   0.000000
   11       -1.005056   0.000000
   12       -0.810122   0.000000
   13       -0.681332   0.000000
   14        1.867714   0.000000
   15        1.968759   0.000000
   16        2.369322   0.000000
   17        2.654955   0.000000
   18        3.028987   0.000000
   19        3.506638   0.000000
   20        3.636183   0.000000
 
  0.1000000E+00  0.0000000E+00  0.0000000E+00  0.7692308E-02
    1      -17.705999   1.000000
    2      -16.594329   1.000000
    3       -9.200042   1.000000
    4       -6.571749   1.000000
    5       -6.127071   1.000000
    6       -6.086275   1.000000
    7       -5.355588   1.000000
    8       -4.825105   1.000000
    9       -3.931607   1.000000
   10       -1.082312   0.000000
   11       -1.057928   0.000000
   12       -0.845724   0.000000
   13       -0.629075   0.000000
   14        1.919731   0.000000
   15        2.015238   0.000000
   16        2.417246   0.000000
   17        2.701772   0.000000
   18        3.084642   0.000000
   19        3.631564   0.000000
   20        3.682142   0.000000
 
  0.1125000E+00  0.0000000E+00  0.0000000E+00  0.7692308E-02
    1      -17.668280   1.000000
    2      -16.575730   1.000000
    3       -9.158009   1.000000
    4       -6.648621   1.000000
    5       -6.220897   1.000000
    6       -6.045418   1.000000
    7       -5.411183   1.000000
    8       -4.803448   1.000000
    9       -3.953523   1.000000
   10       -1.160251   0.000000
   11       -1.082034   0.000000
   12       -0.884211   0.000000
   13       -0.572860   0.000000
   14        1.976434   0.000000
   15        2.067663   0.000000
   16        2.471254   0.000000
   17        2.754767   0.000000
   18        3.143987   0.000000
   19        3.734092   0.000000
   20        3.766093   0.000000
 
  0.1250000E+00  0.0000000E+00  0.0000000E+00  0.7692308E-02
    1      -17.626534   1.000000
    2      -16.555165   1.000000
    3       -9.112699   1.000000
    4       -6.730165   1.000000
    5       -6.316283   1.000000
    6       -6.000453   1.000000
    7       -5.470378   1.000000
    8       -4.790955   1.000000
    9       -3.980353   1.000000
   10       -1.236631   0.000000
   11       -1.099453   0.000000
   12       -0.925022   0.000000
   13       -0.513539   0.000000
   14        2.037645   0.000000
   15        2.125956   0.000000
   16        2.531325   0.000000
   17        2.813917   0.000000
   18        3.207440   0.000000
   19        3.791976   0.000000
   20        3.905039   0.000000
 
  0.1375000E+00  0.0000000E+00  0.0000000E+00  0.7692308E-02
    1      -17.580897   1.000000
    2      -16.532707   1.000000
    3       -9.064772   1.000000
    4       -6.815175   1.000000
    5       -6.412930   1.000000
    6       -5.951618   1.000000
    7       -5.532488   1.000000
    8       -4.787961   1.000000
    9       -4.012583   1.000000
   10       -1.309396   0.000000
   11       -1.108672   0.000000
   12       -0.967559   0.000000
   13       -0.451927   0.000000
   14        2.103246   0.000000
   15        2.190029   0.000000
   16        2.597449   0.000000
   17        2.879195   0.000000
   18        3.275343   0.000000
   19        3.855727   0.000000
   20        4.042395   0.000000
 
  0.1500000E+00  0.0000000E+00  0.0000000E+00  0.7692308E-02
    1      -17.531530   1.000000
    2      -16.508445   1.000000
    3       -9.015065   1.000000
    4       -6.902411   1.000000
    5       -6.510653   1.000000
    6       -5.899186   1.000000
    7       -5.596881   1.000000
    8       -4.794485   1.000000
    9       -4.050579   1.000000
   10       -1.376720   0.000000
   11       -1.108625   0.000000
   12       -1.011255   0.000000
   13       -0.388815   0.000000
   14        2.173145   0.000000
   15        2.259781   0.000000
   16        2.669620   0.000000
   17        2.950573   0.000000
   18        3.347939   0.000000
   19        3.925256   0.000000
   20        4.172351   0.000000
 
  0.1625000E+00  0.0000000E+00  0.0000000E+00  0.7692308E-02
    1      -17.478609   1.000000
    2      -16.482470   1.000000
    3       -8.964561   1.000000
    4       -6.990556   1.000000
    5       -6.609282   1.000000
    6       -5.843443   1.000000
    7       -5.662933   1.000000
    8       -4.810149   1.000000
    9       -4.094456   1.000000
   10       -1.437044   0.000000
   11       -1.098695   0.000000
   12       -1.055511   0.000000
   13       -0.324930   0.000000
   14        2.247259   0.000000
   15        2.335098   0.000000
   16        2.747836   0.000000
   17        3.028018   0.000000
   18        3.425379   0.000000
   19        4.000457   0.000000
   20        4.290367   0.000000
 
  0.1750000E+00  0.0000000E+00  0.0000000E+00  0.7692308E-02
    1      -17.422325   1.000000
    2      -16.454892   1.000000
    3       -8.914475   1.000000
    4       -7.078219   1.000000
    5       -6.708697   1.000000
    6       -5.784733   1.000000
    7       -5.730096   1.000000
    8       -4.834292   1.000000
    9       -4.144071   1.000000
   10       -1.489168   0.000000
   11       -1.099785   0.000000
   12       -1.078722   0.000000
   13       -0.260967   0.000000
   14        2.325491   0.000000
   15        2.415845   0.000000
   16        2.832099   0.000000
   17        3.111489   0.000000
   18        3.507735   0.000000
   19        4.081185   0.000000
   20        4.396179   0.000000
 
  0.1875000E+00  0.0000000E+00  0.0000000E+00  0.7692308E-02
    1      -17.362889   1.000000
    2      -16.425821   1.000000
    3       -8.866260   1.000000
    4       -7.163892   1.000000
    5       -6.808766   1.000000
    6       -5.797845   1.000000
    7       -5.723396   1.000000
    8       -4.865967   1.000000
    9       -4.198924   1.000000
   10       -1.532227   0.000000
   11       -1.143510   0.000000
   12       -1.048923   0.000000
   13       -0.197531   0.000000
   14        2.407721   0.000000
   15        2.501865   0.000000
   16        2.922410   0.000000
   17        3.200941   0.000000
   18        3.595018   0.000000
   19        4.167249   0.000000
   20        4.491244   0.000000
 
  0.2000000E+00  0.0000000E+00  0.0000000E+00  0.7692308E-02
    1      -17.300530   1.000000
    2      -16.395388   1.000000
    3       -8.821649   1.000000
    4       -7.245938   1.000000
    5       -6.909359   1.000000
    6       -5.865697   1.000000
    7       -5.659829   1.000000
    8       -4.904052   1.000000
    9       -4.258164   1.000000
   10       -1.565748   0.000000
   11       -1.186184   0.000000
   12       -1.009863   0.000000
   13       -0.135178   0.000000
   14        2.493791   0.000000
   15        2.592968   0.000000
   16        3.018771   0.000000
   17        3.296319   0.000000
   18        3.687178   0.000000
   19        4.258383   0.000000
   20        4.577482   0.000000
 
  0.2125000E+00  0.0000000E+00  0.0000000E+00  0.7692308E-02
    1      -17.235498   1.000000
    2      -16.363728   1.000000
    3       -8.782654   1.000000
    4       -7.322599   1.000000
    5       -7.010313   1.000000
    6       -5.933230   1.000000
    7       -5.594447   1.000000
    8       -4.947308   1.000000
    9       -4.320581   1.000000
   10       -1.589591   0.000000
   11       -1.227296   0.000000
   12       -0.962355   0.000000
   13       -0.074388   0.000000
   14        2.583505   0.000000
   15        2.688927   0.000000
   16        3.121182   0.000000
   17        3.397553   0.000000
   18        3.784098   0.000000
   19        4.354198   0.000000
   20        4.655586   0.000000
 
  0.2250000E+00  0.0000000E+00  0.0000000E+00  0.7692308E-02
    1      -17.168067   1.000000
    2      -16.330990   1.000000
    3       -8.751501   1.000000
    4       -7.392052   1.000000
    5       -7.111449   1.000000
    6       -6.000048   1.000000
    7       -5.527684   1.000000
    8       -4.994472   1.000000
    9       -4.384658   1.000000
   10       -1.603933   0.000000
   11       -1.266391   0.000000
   12       -0.907398   0.000000
   13       -0.015574   0.000000
   14        2.676612   0.000000
   15        2.789464   0.000000
   16        3.229643   0.000000
   17        3.504557   0.000000
   18        3.885585   0.000000
   19        4.454092   0.000000
   20        4.724253   0.000000
 
  0.2375000E+00  0.0000000E+00  0.0000000E+00  0.7692308E-02
    1      -17.098538   1.000000
    2      -16.297335   1.000000
    3       -8.730463   1.000000
    4       -7.452569   1.000000
    5       -7.212545   1.000000
    6       -6.065784   1.000000
    7       -5.460011   1.000000
    8       -5.044310   1.000000
    9       -4.448629   1.000000
   10       -1.609191   0.000000
   11       -1.303051   0.000000
   12       -0.846090   0.000000
   13        0.040916   0.000000
   14        2.772797   0.000000
   15        2.894237   0.000000
   16        3.344149   0.000000
   17        3.617221   0.000000
   18        3.991331   0.000000
   19        4.557064   0.000000
   20        4.779962   0.000000
 
  0.2500000E+00  0.0000000E+00  0.0000000E+00  0.7692308E-02
    1      -17.027241   1.000000
    2      -16.262944   1.000000
    3       -8.721575   1.000000
    4       -7.502811   1.000000
    5       -7.313338   1.000000
    6       -6.130129   1.000000
    7       -5.391911   1.000000
    8       -5.095696   1.000000
    9       -4.510565   1.000000
   10       -1.605960   0.000000
   11       -1.336879   0.000000
   12       -0.779605   0.000000
   13        0.094801   0.000000
   14        2.871669   0.000000
   15        3.002812   0.000000
   16        3.464694   0.000000
   17        3.735390   0.000000
   18        4.100830   0.000000
   19        4.661300   0.000000
   20        4.817036   0.000000
 
  0.2625000E+00  0.0000000E+00  0.0000000E+00  0.7692308E-02
    1      -16.954519   1.000000
    2      -16.227995   1.000000
    3       -8.726172   1.000000
    4       -7.542195   1.000000
    5       -7.413522   1.000000
    6       -6.192779   1.000000
    7       -5.323902   1.000000
    8       -5.147596   1.000000
    9       -4.568475   1.000000
   10       -1.594942   0.000000
   11       -1.367547   0.000000
   12       -0.709115   0.000000
   13        0.145867   0.000000
   14        2.972743   0.000000
   15        3.114639   0.000000
   16        3.591262   0.000000
   17        3.858843   0.000000
   18        4.213157   0.000000
   19        4.763189   0.000000
   20        4.826131   0.000000
 
  0.2750000E+00  0.0000000E+00  0.0000000E+00  0.7692308E-02
    1      -16.880743   1.000000
    2      -16.192688   1.000000
    3       -8.744540   1.000000
    4       -7.571202   1.000000
    5       -7.512731   1.000000
    6       -6.253475   1.000000
    7       -5.256475   1.000000
    8       -5.199121   1.000000
    9       -4.620374   1.000000
   10       -1.576895   0.000000
   11       -1.394766   0.000000
   12       -0.635793   0.000000
   13        0.193951   0.000000
   14        3.075406   0.000000
   15        3.229001   0.000000
   16        3.723824   0.000000
   17        3.987238   0.000000
   18        4.326196   0.000000
   19        4.801585   0.000000
   20        4.854989   0.000000
 
  0.2875000E+00  0.0000000E+00  0.0000000E+00  0.7692308E-02
    1      -16.806322   1.000000
    2      -16.157234   1.000000
    3       -8.775829   1.000000
    4       -7.610569   1.000000
    5       -7.591450   1.000000
    6       -6.311990   1.000000
    7       -5.249521   1.000000
    8       -5.190162   1.000000
    9       -4.664455   1.000000
   10       -1.552606   0.000000
   11       -1.418302   0.000000
   12       -0.560786   0.000000
   13        0.238946   0.000000
   14        3.178864   0.000000
   15        3.344951   0.000000
   16        3.862321   0.000000
   17        4.119994   0.000000
   18        4.432875   0.000000
   19        4.747423   0.000000
   20        4.921318   0.000000
 
  0.3000000E+00  0.0000000E+00  0.0000000E+00  0.7692308E-02
    1      -16.731687   1.000000
    2      -16.121850   1.000000
    3       -8.818241   1.000000
    4       -7.706600   1.000000
    5       -7.605349   1.000000
    6       -6.368098   1.000000
    7       -5.298179   1.000000
    8       -5.125463   1.000000
    9       -4.699161   1.000000
   10       -1.522829   0.000000
   11       -1.438001   0.000000
   12       -0.485186   0.000000
   13        0.280797   0.000000
   14        3.282041   0.000000
   15        3.461212   0.000000
   16        4.006604   0.000000
   17        4.256007   0.000000
   18        4.496114   0.000000
   19        4.705498   0.000000
   20        4.945614   0.000000
 
  0.3125000E+00  0.0000000E+00  0.0000000E+00  0.7692308E-02
    1      -16.657308   1.000000
    2      -16.086773   1.000000
    3       -8.869468   1.000000
    4       -7.800350   1.000000
    5       -7.615599   1.000000
    6       -6.421615   1.000000
    7       -5.344624   1.000000
    8       -5.062874   1.000000
    9       -4.723325   1.000000
   10       -1.488310   0.000000
   11       -1.453785   0.000000
   12       -0.410058   0.000000
   13        0.319485   0.000000
   14        3.383326   0.000000
   15        3.576049   0.000000
   16        4.156035   0.000000
   17        4.392901   0.000000
   18        4.437928   0.000000
   19        4.763339   0.000000
   20        4.936412   0.000000
 
  0.3250000E+00  0.0000000E+00  0.0000000E+00  0.7692308E-02
    1      -16.583685   1.000000
    2      -16.052247   1.000000
    3       -8.927085   1.000000
    4       -7.891324   1.000000
    5       -7.624682   1.000000
    6       -6.472365   1.000000
    7       -5.388483   1.000000
    8       -5.002862   1.000000
    9       -4.736270   1.000000
   10       -1.465649   0.000000
   11       -1.449770   0.000000
   12       -0.336394   0.000000
   13        0.355034   0.000000
   14        3.479875   0.000000
   15        3.687107   0.000000
   16        4.285923   0.000000
   17        4.339020   0.000000
   18        4.524795   0.000000
   19        4.874406   0.000000
   20        4.923959   0.000000
 
  0.3375000E+00  0.0000000E+00  0.0000000E+00  0.7692308E-02
    1      -16.511340   1.000000
    2      -16.018522   1.000000
    3       -8.988849   1.000000
    4       -7.979015   1.000000
    5       -7.634523   1.000000
    6       -6.520202   1.000000
    7       -5.429497   1.000000
    8       -4.945850   1.000000
    9       -4.737865   1.000000
   10       -1.473694   0.000000
   11       -1.407893   0.000000
   12       -0.265116   0.000000
   13        0.387495   0.000000
   14        3.565309   0.000000
   15        3.791285   0.000000
   16        4.168972   0.000000
   17        4.479487   0.000000
   18        4.636998   0.000000
   19        4.941126   0.000000
   20        4.997426   0.000000
 
  0.3500000E+00  0.0000000E+00  0.0000000E+00  0.7692308E-02
    1      -16.440834   1.000000
    2      -15.985856   1.000000
    3       -9.052739   1.000000
    4       -8.062903   1.000000
    5       -7.646325   1.000000
    6       -6.564982   1.000000
    7       -5.467486   1.000000
    8       -4.892236   1.000000
    9       -4.728572   1.000000
   10       -1.478108   0.000000
   11       -1.363351   0.000000
   12       -0.197065   0.000000
   13        0.416937   0.000000
   14        3.621533   0.000000
   15        3.884847   0.000000
   16        4.048388   0.000000
   17        4.646233   0.000000
   18        4.710442   0.000000
   19        5.017064   0.000000
   20        5.124217   0.000000
 
  0.3625000E+00  0.0000000E+00  0.0000000E+00  0.7692308E-02
    1      -16.372751   1.000000
    2      -15.954509   1.000000
    3       -9.117063   1.000000
    4       -8.142444   1.000000
    5       -7.660629   1.000000
    6       -6.606587   1.000000
    7       -5.502332   1.000000
    8       -4.842340   1.000000
    9       -4.709396   1.000000
   10       -1.479183   0.000000
   11       -1.316799   0.000000
   12       -0.132987   0.000000
   13        0.443454   0.000000
   14        3.605252   0.000000
   15        3.964121   0.000000
   16        3.992834   0.000000
   17        4.757196   0.000000
   18        4.819073   0.000000
   19        5.145255   0.000000
   20        5.252645   0.000000
 
  0.3750000E+00  0.0000000E+00  0.0000000E+00  0.7692308E-02
    1      -16.307686   1.000000
    2      -15.924746   1.000000
    3       -9.180372   1.000000
    4       -8.217138   1.000000
    5       -7.677407   1.000000
    6       -6.644905   1.000000
    7       -5.533979   1.000000
    8       -4.796421   1.000000
    9       -4.681827   1.000000
   10       -1.477299   0.000000
   11       -1.268932   0.000000
   12       -0.073520   0.000000
   13        0.467160   0.000000
   14        3.502086   0.000000
   15        4.020836   0.000000
   16        4.026952   0.000000
   17        4.804696   0.000000
   18        4.996982   0.000000
   19        5.299911   0.000000
   20        5.382164   0.000000
 
  0.3875000E+00  0.0000000E+00  0.0000000E+00  0.7692308E-02
    1      -16.246261   1.000000
    2      -15.896832   1.000000
    3       -9.241406   1.000000
    4       -8.286475   1.000000
    5       -7.696185   1.000000
    6       -6.679835   1.000000
    7       -5.562409   1.000000
    8       -4.754695   1.000000
    9       -4.647716   1.000000
   10       -1.472932   0.000000
   11       -1.220489   0.000000
   12       -0.019173   0.000000
   13        0.488156   0.000000
   14        3.360079   0.000000
   15        4.074040   0.000000
   16        4.087313   0.000000
   17        4.863678   0.000000
   18        5.178951   0.000000
   19        5.467450   0.000000
   20        5.512851   0.000000
 
  0.4000000E+00  0.0000000E+00  0.0000000E+00  0.7692308E-02
    1      -16.189103   1.000000
    2      -15.871022   1.000000
    3       -9.299071   1.000000
    4       -8.349968   1.000000
    5       -7.716215   1.000000
    6       -6.711302   1.000000
    7       -5.587648   1.000000
    8       -4.717303   1.000000
    9       -4.609162   1.000000
   10       -1.466626   0.000000
   11       -1.172288   0.000000
   12        0.029665   0.000000
   13        0.506562   0.000000
   14        3.209682   0.000000
   15        4.108690   0.000000
   16        4.164313   0.000000
   17        4.932925   0.000000
   18        5.363059   0.000000
   19        5.642144   0.000000
   20        5.645201   0.000000
 
  0.4125000E+00  0.0000000E+00  0.0000000E+00  0.7692308E-02
    1      -16.136840   1.000000
    2      -15.847574   1.000000
    3       -9.352386   1.000000
    4       -8.407180   1.000000
    5       -7.736612   1.000000
    6       -6.739237   1.000000
    7       -5.609728   1.000000
    8       -4.684335   1.000000
    9       -4.568381   1.000000
   10       -1.458998   0.000000
   11       -1.125253   0.000000
   12        0.072732   0.000000
   13        0.522485   0.000000
   14        3.062735   0.000000
   15        4.135073   0.000000
   16        4.242215   0.000000
   17        5.006560   0.000000
   18        5.544863   0.000000
   19        5.780881   0.000000
   20        5.820439   0.000000
 
  0.4250000E+00  0.0000000E+00  0.0000000E+00  0.7692308E-02
    1      -16.090077   1.000000
    2      -15.826716   1.000000
    3       -9.400484   1.000000
    4       -8.457672   1.000000
    5       -7.756442   1.000000
    6       -6.763567   1.000000
    7       -5.628704   1.000000
    8       -4.655845   1.000000
    9       -4.527597   1.000000
   10       -1.450666   0.000000
   11       -1.080469   0.000000
   12        0.109893   0.000000
   13        0.536043   0.000000
   14        2.925285   0.000000
   15        4.156604   0.000000
   16        4.316937   0.000000
   17        5.077861   0.000000
   18        5.713783   0.000000
   19        5.925630   0.000000
   20        5.998324   0.000000
 
  0.4375000E+00  0.0000000E+00  0.0000000E+00  0.7692308E-02
    1      -16.049389   1.000000
    2      -15.808666   1.000000
    3       -9.442597   1.000000
    4       -8.501085   1.000000
    5       -7.774831   1.000000
    6       -6.784248   1.000000
    7       -5.644634   1.000000
    8       -4.631832   1.000000
    9       -4.488939   1.000000
   10       -1.442288   0.000000
   11       -1.039139   0.000000
   12        0.141110   0.000000
   13        0.547327   0.000000
   14        2.801512   0.000000
   15        4.175303   0.000000
   16        4.385946   0.000000
   17        5.141102   0.000000
   18        5.851815   0.000000
   19        6.090543   0.000000
   20        6.169072   0.000000
 
  0.4500000E+00  0.0000000E+00  0.0000000E+00  0.7692308E-02
    1      -16.015296   1.000000
    2      -15.793614   1.000000
    3       -9.478036   1.000000
    4       -8.537079   1.000000
    5       -7.790987   1.000000
    6       -6.801231   1.000000
    7       -5.657573   1.000000
    8       -4.612265   1.000000
    9       -4.454363   1.000000
   10       -1.434465   0.000000
   11       -1.002586   0.000000
   12        0.166435   0.000000
   13        0.556428   0.000000
   14        2.694861   0.000000
   15        4.191889   0.000000
   16        4.447053   0.000000
   17        5.192487   0.000000
   18        5.948165   0.000000
   19        6.279335   0.000000
   20        6.320940   0.000000
 
  0.4625000E+00  0.0000000E+00  0.0000000E+00  0.7692308E-02
    1      -15.988257   1.000000
    2      -15.781726   1.000000
    3       -9.506220   1.000000
    4       -8.565370   1.000000
    5       -7.804250   1.000000
    6       -6.814472   1.000000
    7       -5.667571   1.000000
    8       -4.597099   1.000000
    9       -4.425570   1.000000
   10       -1.427732   0.000000
   11       -0.972202   0.000000
   12        0.185959   0.000000
   13        0.563429   0.000000
   14        2.608327   0.000000
   15        4.206142   0.000000
   16        4.498040   0.000000
   17        5.230523   0.000000
   18        6.007228   0.000000
   19        6.440281   0.000000
   20        6.484025   0.000000
 
  0.4750000E+00  0.0000000E+00  0.0000000E+00  0.7692308E-02
    1      -15.968657   1.000000
    2      -15.773138   1.000000
    3       -9.526700   1.000000
    4       -8.585744   1.000000
    5       -7.814099   1.000000
    6       -6.823951   1.000000
    7       -5.674681   1.000000
    8       -4.586308   1.000000
    9       -4.403963   1.000000
   10       -1.422568   0.000000
   11       -0.949328   0.000000
   12        0.199793   0.000000
   13        0.568384   0.000000
   14        2.544468   0.000000
   15        4.217305   0.000000
   16        4.536647   0.000000
   17        5.255740   0.000000
   18        6.038786   0.000000
   19        6.522738   0.000000
   20        6.695922   0.000000
 
  0.4875000E+00  0.0000000E+00  0.0000000E+00  0.7692308E-02
    1      -15.956780   1.000000
    2      -15.767938   1.000000
    3       -9.539127   1.000000
    4       -8.598017   1.000000
    5       -7.820149   1.000000
    6       -6.829641   1.000000
    7       -5.678930   1.000000
    8       -4.579851   1.000000
    9       -4.390572   1.000000
   10       -1.419319   0.000000
   11       -0.935084   0.000000
   12        0.208049   0.000000
   13        0.571342   0.000000
   14        2.505293   0.000000
   15        4.224481   0.000000
   16        4.560811   0.000000
   17        5.269787   0.000000
   18        6.052846   0.000000
   19        6.571590   0.000000
   20        6.902689   0.000000
 
  0.5000000E+00  0.0000000E+00  0.0000000E+00  0.7692308E-02
    1      -15.952801   1.000000
    2      -15.766199   1.000000
    3       -9.543293   1.000000
    4       -8.602126   1.000000
    5       -7.822192   1.000000
    6       -6.831537   1.000000
    7       -5.680343   1.000000
    8       -4.577702   1.000000
    9       -4.386037   1.000000
   10       -1.418213   0.000000
   11       -0.930249   0.000000
   12        0.210790   0.000000
   13        0.572324   0.000000
   14        2.492084   0.000000
   15        4.226961   0.000000
   16        4.569049   0.000000
   17        5.274255   0.000000
   18        6.056665   0.000000
   19        6.588004   0.000000
   20        7.031362   0.000000
 
  0.5057586E+00  0.1148276E-01  0.0000000E+00  0.7692308E-02
    1      -15.952145   1.000000
    2      -15.765735   1.000000
    3       -9.541339   1.000000