PROCAR lm decomposed
# of k-points:  130         # of bands:  20         # of ions:   3

 k-point    1 :    0.00000000 0.00000000 0.00000000     weight = 0.00769231

band   1 # energy  -17.85106561 # occ.  2.00000000
 
ion      s     py     pz     px    dxy    dyz    dz2    dxz    dx2    tot
  1  0.133  0.000  0.000  0.000  0.000  0.000  0.001  0.000  0.000  0.133
  2  0.275  0.000  0.005  0.000  0.000  0.000  0.000  0.000  0.000  0.280
  3  0.275  0.000  0.005  0.000  0.000  0.000  0.000  0.000  0.000  0.280
tot  0.684  0.000  0.010  0.000  0.000  0.000  0.001  0.000  0.000  0.694
 
band   2 # energy  -16.66598330 # occ.  2.00000000
 
ion      s     py     pz     px    dxy    dyz    dz2    dxz    dx2    tot
  1  0.000  0.000  0.061  0.000  0.000  0.000  0.000  0.000  0.000  0.061
  2  0.314  0.000  0.000  0.000  0.000  0.000  0.000  0.000  0.000  0.314
  3  0.314  0.000  0.000  0.000  0.000  0.000  0.000  0.000  0.000  0.314
tot  0.628  0.000  0.062  0.000  0.000  0.000  0.000  0.000  0.000  0.690
 
band   3 # energy   -9.36967179 # occ.  2.00000000
 
ion      s     py     pz     px    dxy    dyz    dz2    dxz    dx2    tot
  1  0.141  0.000  0.000  0.000  0.000  0.000  0.204  0.000  0.000  0.345
  2  0.017  0.000  0.124  0.000  0.000  0.000  0.000  0.000  0.000  0.141
  3  0.017  0.000  0.124  0.000  0.000  0.000  0.000  0.000  0.000  0.141
tot  0.175  0.000  0.248  0.000  0.000  0.000  0.204  0.000  0.000  0.627
 
band   4 # energy   -6.24527321 # occ.  2.00000000
 
ion      s     py     pz     px    dxy    dyz    dz2    dxz    dx2    tot
  1  0.000  0.006  0.000  0.000  0.612  0.000  0.000  0.000  0.000  0.618
  2  0.000  0.110  0.000  0.000  0.000  0.000  0.000  0.000  0.000  0.110
  3  0.000  0.110  0.000  0.000  0.000  0.000  0.000  0.000  0.000  0.110
tot  0.000  0.226  0.000  0.000  0.612  0.000  0.000  0.000  0.000  0.838
 
band   5 # energy   -6.24526188 # occ.  2.00000000
 
ion      s     py     pz     px    dxy    dyz    dz2    dxz    dx2    tot
  1  0.000  0.000  0.000  0.006  0.000  0.000  0.000  0.000  0.612  0.618
  2  0.000  0.000  0.000  0.110  0.000  0.000  0.000  0.000  0.000  0.110
  3  0.000  0.000  0.000  0.110  0.000  0.000  0.000  0.000  0.000  0.110
tot  0.000  0.000  0.000  0.226  0.000  0.000  0.000  0.000  0.612  0.838
 
band   6 # energy   -5.58495858 # occ.  2.00000000
 
ion      s     py     pz     px    dxy    dyz    dz2    dxz    dx2    tot
  1  0.000  0.000  0.060  0.000  0.000  0.000  0.000  0.000  0.000  0.060
  2  0.000  0.000  0.246  0.000  0.000  0.000  0.000  0.000  0.000  0.246
  3  0.000  0.000  0.246  0.000  0.000  0.000  0.000  0.000  0.000  0.246
tot  0.000  0.000  0.551  0.000  0.000  0.000  0.000  0.000  0.000  0.552
 
band   7 # energy   -5.11962128 # occ.  2.00000000
 
ion      s     py     pz     px    dxy    dyz    dz2    dxz    dx2    tot
  1  0.000  0.000  0.000  0.000  0.000  0.000  0.000  0.553  0.000  0.553
  2  0.000  0.000  0.000  0.150  0.000  0.000  0.000  0.000  0.000  0.150
  3  0.000  0.000  0.000  0.150  0.000  0.000  0.000  0.000  0.000  0.150
tot  0.000  0.000  0.000  0.300  0.000  0.000  0.000  0.553  0.000  0.852
 
band   8 # energy   -5.11958805 # occ.  2.00000000
 
ion      s     py     pz     px    dxy    dyz    dz2    dxz    dx2    tot
  1  0.000  0.000  0.000  0.000  0.000  0.553  0.000  0.000  0.000  0.553
  2  0.000  0.150  0.000  0.000  0.000  0.000  0.000  0.000  0.000  0.150
  3  0.000  0.150  0.000  0.000  0.000  0.000  0.000  0.000  0.000  0.150
tot  0.000  0.300  0.000  0.000  0.000  0.553  0.000  0.000  0.000  0.852
 
band   9 # energy   -3.86904178 # occ.  2.00000000
 
ion      s     py     pz     px    dxy    dyz    dz2    dxz    dx2    tot
  1  0.012  0.000  0.000  0.000  0.000  0.000  0.598  0.000  0.000  0.610
  2  0.002  0.000  0.071  0.000  0.000  0.000  0.000  0.000  0.000  0.073
  3  0.002  0.000  0.071  0.000  0.000  0.000  0.000  0.000  0.000  0.073
tot  0.016  0.000  0.141  0.000  0.000  0.000  0.598  0.000  0.000  0.756
 
band  10 # energy   -0.87201412 # occ.  0.00000000
 
ion      s     py     pz     px    dxy    dyz    dz2    dxz    dx2    tot
  1  0.000  0.000  0.000  0.000  0.000  0.350  0.000  0.000  0.000  0.350
  2  0.000  0.191  0.000  0.000  0.000  0.000  0.000  0.000  0.000  0.191
  3  0.000  0.191  0.000  0.000  0.000  0.000  0.000  0.000  0.000  0.191
tot  0.000  0.381  0.000  0.000  0.000  0.350  0.000  0.000  0.000  0.732
 
band  11 # energy   -0.87198521 # occ.  0.00000000
 
ion      s     py     pz     px    dxy    dyz    dz2    dxz    dx2    tot
  1  0.000  0.000  0.000  0.000  0.000  0.000  0.000  0.350  0.000  0.350
  2  0.000  0.000  0.000  0.191  0.000  0.000  0.000  0.000  0.000  0.191
  3  0.000  0.000  0.000  0.191  0.000  0.000  0.000  0.000  0.000  0.191
tot  0.000  0.000  0.000  0.381  0.000  0.000  0.000  0.350  0.000  0.732
 
band  12 # energy   -0.68208001 # occ.  0.00000000
 
ion      s     py     pz     px    dxy    dyz    dz2    dxz    dx2    tot
  1  0.000  0.000  0.000  0.018  0.000  0.000  0.000  0.000  0.290  0.308
  2  0.000  0.000  0.000  0.236  0.000  0.000  0.000  0.000  0.000  0.236
  3  0.000  0.000  0.000  0.236  0.000  0.000  0.000  0.000  0.000  0.236
tot  0.000  0.000  0.000  0.490  0.000  0.000  0.000  0.000  0.290  0.780
 
band  13 # energy   -0.68206986 # occ.  0.00000000
 
ion      s     py     pz     px    dxy    dyz    dz2    dxz    dx2    tot
  1  0.000  0.018  0.000  0.000  0.290  0.000  0.000  0.000  0.000  0.308
  2  0.000  0.236  0.000  0.000  0.000  0.000  0.000  0.000  0.000  0.236
  3  0.000  0.236  0.000  0.000  0.000  0.000  0.000  0.000  0.000  0.236
tot  0.000  0.490  0.000  0.000  0.290  0.000  0.000  0.000  0.000  0.780
 
band  14 # energy    1.67479313 # occ.  0.00000000
 
ion      s     py     pz     px    dxy    dyz    dz2    dxz    dx2    tot
  1  0.029  0.000  0.000  0.000  0.000  0.000  0.024  0.000  0.000  0.053
  2  0.022  0.000  0.003  0.000  0.000  0.000  0.000  0.000  0.000  0.025
  3  0.022  0.000  0.003  0.000  0.000  0.000  0.000  0.000  0.000  0.025
tot  0.072  0.000  0.007  0.000  0.000  0.000  0.024  0.000  0.000  0.102
 
band  15 # energy    1.81527294 # occ.  0.00000000
 
ion      s     py     pz     px    dxy    dyz    dz2    dxz    dx2    tot
  1  0.000  0.000  0.002  0.000  0.000  0.000  0.000  0.000  0.000  0.002
  2  0.002  0.000  0.015  0.000  0.000  0.000  0.000  0.000  0.000  0.017
  3  0.002  0.000  0.015  0.000  0.000  0.000  0.000  0.000  0.000  0.017
tot  0.004  0.000  0.032  0.000  0.000  0.000  0.000  0.000  0.000  0.037
 
band  16 # energy    2.20956264 # occ.  0.00000000
 
ion      s     py     pz     px    dxy    dyz    dz2    dxz    dx2    tot
  1  0.005  0.000  0.000  0.000  0.000  0.000  0.002  0.000  0.000  0.007
  2  0.003  0.000  0.000  0.000  0.000  0.000  0.000  0.000  0.000  0.003
  3  0.003  0.000  0.000  0.000  0.000  0.000  0.000  0.000  0.000  0.003
tot  0.011  0.000  0.000  0.000  0.000  0.000  0.002  0.000  0.000  0.013
 
band  17 # energy    2.50160467 # occ.  0.00000000
 
ion      s     py     pz     px    dxy    dyz    dz2    dxz    dx2    tot
  1  0.000  0.000  0.000  0.000  0.000  0.000  0.000  0.000  0.000  0.000
  2  0.001  0.000  0.004  0.000  0.000  0.000  0.000  0.000  0.000  0.005
  3  0.001  0.000  0.004  0.000  0.000  0.000  0.000  0.000  0.000  0.005
tot  0.001  0.000  0.008  0.000  0.000  0.000  0.000  0.000  0.000  0.010
 
band  18 # energy    2.78611365 # occ.  0.00000000
 
ion      s     py     pz     px    dxy    dyz    dz2    dxz    dx2    tot
  1  0.071  0.000  0.000  0.000  0.000  0.000  0.004  0.000  0.000  0.075
  2  0.043  0.000  0.006  0.000  0.000  0.000  0.000  0.000  0.000  0.049
  3  0.043  0.000  0.006  0.000  0.000  0.000  0.000  0.000  0.000  0.049
tot  0.157  0.000  0.013  0.000  0.000  0.000  0.004  0.000  0.000  0.173
 
band  19 # energy    3.10159132 # occ.  0.00000000
 
ion      s     py     pz     px    dxy    dyz    dz2    dxz    dx2    tot
  1  0.056  0.000  0.000  0.000  0.000  0.000  0.001  0.000  0.000  0.057
  2  0.029  0.000  0.024  0.000  0.000  0.000  0.000  0.000  0.000  0.053
  3  0.029  0.000  0.024  0.000  0.000  0.000  0.000  0.000  0.000  0.053
tot  0.114  0.000  0.048  0.000  0.000  0.000  0.001  0.000  0.000  0.163
 
band  20 # energy    3.48526807 # occ.  0.00000000
 
ion      s     py     pz     px    dxy    dyz    dz2    dxz    dx2    tot
  1  0.000  0.000  0.001  0.000  0.000  0.000  0.000  0.000  0.000  0.001
  2  0.001  0.000  0.007  0.000  0.000  0.000  0.000  0.000  0.000  0.008
  3  0.001  0.000  0.007  0.000  0.000  0.000  0.000  0.000  0.000  0.008
tot  0.003  0.000  0.014  0.000  0.000  0.000  0.000  0.000  0.000  0.017
 

 k-point    2 :    0.01250000 0.00000000 0.00000000     weight = 0.00769231

band   1 # energy  -17.84876407 # occ.  2.00000000
 
ion      s     py     pz     px    dxy    dyz    dz2    dxz    dx2    tot
  1  0.133  0.000  0.000  0.000  0.000  0.000  0.001  0.000  0.000  0.133
  2  0.275  0.000  0.005  0.000  0.000  0.000  0.000  0.000  0.000  0.280
  3  0.275  0.000  0.005  0.000  0.000  0.000  0.000  0.000  0.000  0.280
tot  0.683  0.000  0.010  0.000  0.000  0.000  0.001  0.000  0.000  0.694
 
band   2 # energy  -16.66484455 # occ.  2.00000000
 
ion      s     py     pz     px    dxy    dyz    dz2    dxz    dx2    tot
  1  0.000  0.000  0.061  0.000  0.000  0.000  0.000  0.000  0.000  0.061
  2  0.314  0.000  0.000  0.000  0.000  0.000  0.000  0.000  0.000  0.314
  3  0.314  0.000  0.000  0.000  0.000  0.000  0.000  0.000  0.000  0.314
tot  0.628  0.000  0.062  0.000  0.000  0.000  0.000  0.000  0.000  0.690
 
band   3 # energy   -9.36689365 # occ.  2.00000000
 
ion      s     py     pz     px    dxy    dyz    dz2    dxz    dx2    tot
  1  0.141  0.000  0.000  0.000  0.000  0.000  0.204  0.000  0.000  0.345
  2  0.017  0.000  0.124  0.000  0.000  0.000  0.000  0.000  0.000  0.141
  3  0.017  0.000  0.124  0.000  0.000  0.000  0.000  0.000  0.000  0.141
tot  0.175  0.000  0.248  0.000  0.000  0.000  0.204  0.000  0.000  0.627
 
band   4 # energy   -6.25087135 # occ.  2.00000000
 
ion      s     py     pz     px    dxy    dyz    dz2    dxz    dx2    tot
  1  0.000  0.005  0.000  0.002  0.459  0.000  0.000  0.000  0.152  0.617
  2  0.000  0.083  0.000  0.027  0.000  0.000  0.000  0.000  0.000  0.110
  3  0.000  0.083  0.000  0.027  0.000  0.000  0.000  0.000  0.000  0.110
tot  0.001  0.170  0.000  0.056  0.459  0.000  0.000  0.000  0.152  0.838
 
band   5 # energy   -6.24272042 # occ.  2.00000000
 
ion      s     py     pz     px    dxy    dyz    dz2    dxz    dx2    tot
  1  0.000  0.002  0.000  0.005  0.153  0.000  0.000  0.000  0.459  0.618
  2  0.000  0.027  0.000  0.083  0.000  0.000  0.000  0.000  0.000  0.110
  3  0.000  0.027  0.000  0.083  0.000  0.000  0.000  0.000  0.000  0.110
tot  0.000  0.056  0.000  0.170  0.153  0.000  0.000  0.000  0.459  0.838
 
band   6 # energy   -5.60082278 # occ.  2.00000000
 
ion      s     py     pz     px    dxy    dyz    dz2    dxz    dx2    tot
  1  0.000  0.000  0.057  0.000  0.000  0.016  0.000  0.005  0.000  0.078
  2  0.000  0.003  0.237  0.001  0.000  0.000  0.000  0.000  0.000  0.242
  3  0.000  0.003  0.237  0.001  0.000  0.000  0.000  0.000  0.000  0.242
tot  0.000  0.006  0.531  0.002  0.000  0.016  0.000  0.005  0.000  0.562
 
band   7 # energy   -5.12367686 # occ.  2.00000000
 
ion      s     py     pz     px    dxy    dyz    dz2    dxz    dx2    tot
  1  0.000  0.000  0.000  0.000  0.000  0.138  0.000  0.415  0.000  0.552
  2  0.000  0.037  0.000  0.113  0.000  0.000  0.000  0.000  0.000  0.150
  3  0.000  0.037  0.000  0.113  0.000  0.000  0.000  0.000  0.000  0.150
tot  0.000  0.075  0.000  0.225  0.000  0.138  0.000  0.415  0.000  0.852
 
band   8 # energy   -5.10724580 # occ.  2.00000000
 
ion      s     py     pz     px    dxy    dyz    dz2    dxz    dx2    tot
  1  0.000  0.000  0.003  0.000  0.000  0.397  0.000  0.132  0.000  0.533
  2  0.000  0.110  0.008  0.036  0.000  0.000  0.000  0.000  0.000  0.154
  3  0.000  0.110  0.008  0.036  0.000  0.000  0.000  0.000  0.000  0.154
tot  0.000  0.219  0.020  0.073  0.000  0.397  0.000  0.132  0.000  0.841
 
band   9 # energy   -3.86976280 # occ.  2.00000000
 
ion      s     py     pz     px    dxy    dyz    dz2    dxz    dx2    tot
  1  0.012  0.000  0.000  0.000  0.000  0.000  0.598  0.000  0.000  0.611
  2  0.002  0.000  0.071  0.000  0.000  0.000  0.000  0.000  0.000  0.073
  3  0.002  0.000  0.071  0.000  0.000  0.000  0.000  0.000  0.000  0.073
tot  0.016  0.000  0.141  0.000  0.000  0.000  0.598  0.000  0.000  0.756
 
band  10 # energy   -0.87634700 # occ.  0.00000000
 
ion      s     py     pz     px    dxy    dyz    dz2    dxz    dx2    tot
  1  0.000  0.000  0.000  0.000  0.000  0.264  0.000  0.087  0.000  0.351
  2  0.000  0.142  0.000  0.047  0.000  0.000  0.000  0.000  0.000  0.190
  3  0.000  0.142  0.000  0.047  0.000  0.000  0.000  0.000  0.000  0.190
tot  0.001  0.285  0.000  0.094  0.000  0.264  0.000  0.087  0.000  0.731
 
band  11 # energy   -0.86776059 # occ.  0.00000000
 
ion      s     py     pz     px    dxy    dyz    dz2    dxz    dx2    tot
  1  0.000  0.000  0.000  0.000  0.000  0.087  0.000  0.263  0.000  0.351
  2  0.000  0.047  0.000  0.143  0.000  0.000  0.000  0.000  0.000  0.191
  3  0.000  0.047  0.000  0.143  0.000  0.000  0.000  0.000  0.000  0.191
tot  0.000  0.095  0.000  0.286  0.000  0.087  0.000  0.263  0.000  0.732
 
band  12 # energy   -0.69001947 # occ.  0.00000000
 
ion      s     py     pz     px    dxy    dyz    dz2    dxz    dx2    tot
  1  0.000  0.013  0.000  0.004  0.217  0.000  0.000  0.000  0.073  0.308
  2  0.000  0.176  0.000  0.059  0.000  0.000  0.000  0.000  0.000  0.235
  3  0.000  0.176  0.000  0.059  0.000  0.000  0.000  0.000  0.000  0.235
tot  0.001  0.365  0.000  0.122  0.217  0.000  0.000  0.000  0.073  0.779
 
band  13 # energy   -0.68488668 # occ.  0.00000000
 
ion      s     py     pz     px    dxy    dyz    dz2    dxz    dx2    tot
  1  0.000  0.005  0.000  0.014  0.073  0.000  0.000  0.000  0.217  0.308
  2  0.000  0.059  0.000  0.177  0.000  0.000  0.000  0.000  0.000  0.236
  3  0.000  0.059  0.000  0.177  0.000  0.000  0.000  0.000  0.000  0.236
tot  0.000  0.123  0.000  0.367  0.073  0.000  0.000  0.000  0.217  0.780
 
band  14 # energy    1.67930186 # occ.  0.00000000
 
ion      s     py     pz     px    dxy    dyz    dz2    dxz    dx2    tot
  1  0.028  0.000  0.000  0.000  0.000  0.000  0.024  0.000  0.000  0.052
  2  0.021  0.000  0.003  0.000  0.000  0.000  0.000  0.000  0.000  0.025
  3  0.021  0.000  0.003  0.000  0.000  0.000  0.000  0.000  0.000  0.025
tot  0.071  0.000  0.007  0.000  0.000  0.000  0.024  0.000  0.000  0.102
 
band  15 # energy    1.81843477 # occ.  0.00000000
 
ion      s     py     pz     px    dxy    dyz    dz2    dxz    dx2    tot
  1  0.000  0.000  0.002  0.000  0.000  0.000  0.000  0.000  0.000  0.002
  2  0.002  0.000  0.015  0.000  0.000  0.000  0.000  0.000  0.000  0.017
  3  0.002  0.000  0.015  0.000  0.000  0.000  0.000  0.000  0.000  0.017
tot  0.004  0.000  0.032  0.000  0.000  0.000  0.000  0.000  0.000  0.037
 
band  16 # energy    2.21290456 # occ.  0.00000000
 
ion      s     py     pz     px    dxy    dyz    dz2    dxz    dx2    tot
  1  0.005  0.000  0.000  0.000  0.000  0.000  0.002  0.000  0.000  0.007
  2  0.003  0.000  0.000  0.000  0.000  0.000  0.000  0.000  0.000  0.003
  3  0.003  0.000  0.000  0.000  0.000  0.000  0.000  0.000  0.000  0.003
tot  0.011  0.000  0.000  0.000  0.000  0.000  0.002  0.000  0.000  0.013
 
band  17 # energy    2.50474125 # occ.  0.00000000
 
ion      s     py     pz     px    dxy    dyz    dz2    dxz    dx2    tot
  1  0.000  0.000  0.000  0.000  0.000  0.000  0.000  0.000  0.000  0.000
  2  0.001  0.000  0.004  0.000  0.000  0.000  0.000  0.000  0.000  0.005
  3  0.001  0.000  0.004  0.000  0.000  0.000  0.000  0.000  0.000  0.005
tot  0.001  0.000  0.008  0.000  0.000  0.000  0.000  0.000  0.000  0.010
 
band  18 # energy    2.79289557 # occ.  0.00000000
 
ion      s     py     pz     px    dxy    dyz    dz2    dxz    dx2    tot
  1  0.070  0.000  0.000  0.000  0.000  0.000  0.004  0.000  0.000  0.074
  2  0.042  0.000  0.006  0.000  0.000  0.000  0.000  0.000  0.000  0.048
  3  0.042  0.000  0.006  0.000  0.000  0.000  0.000  0.000  0.000  0.048
tot  0.153  0.000  0.012  0.000  0.000  0.000  0.004  0.000  0.000  0.170
 
band  19 # energy    3.10886936 # occ.  0.00000000
 
ion      s     py     pz     px    dxy    dyz    dz2    dxz    dx2    tot
  1  0.058  0.000  0.000  0.000  0.000  0.000  0.001  0.000  0.000  0.059
  2  0.030  0.000  0.024  0.000  0.000  0.000  0.000  0.000  0.000  0.054
  3  0.030  0.000  0.024  0.000  0.000  0.000  0.000  0.000  0.000  0.054
tot  0.117  0.000  0.049  0.000  0.000  0.000  0.001  0.000  0.000  0.168
 
band  20 # energy    3.48836034 # occ.  0.00000000
 
ion      s     py     pz     px    dxy    dyz    dz2    dxz    dx2    tot
  1  0.000  0.000  0.001  0.000  0.000  0.000  0.000  0.000  0.000  0.001
  2  0.001  0.000  0.007  0.000  0.000  0.000  0.000  0.000  0.000  0.008
  3  0.001  0.000  0.007  0.000  0.000  0.000  0.000  0.000  0.000  0.008
tot  0.003  0.000  0.014  0.000  0.000  0.000  0.000  0.000  0.000  0.017
 

 k-point    3 :    0.02500000 0.00000000 0.00000000     weight = 0.00769231

band   1 # energy  -17.84186153 # occ.  2.00000000
 
ion      s     py     pz     px    dxy    dyz    dz2    dxz    dx2    tot
  1  0.132  0.000  0.000  0.000  0.000  0.000  0.001  0.000  0.000  0.133
  2  0.276  0.000  0.005  0.000  0.000  0.000  0.000  0.000  0.000  0.280
  3  0.276  0.000  0.005  0.000  0.000  0.000  0.000  0.000  0.000  0.280
tot  0.683  0.000  0.010  0.000  0.000  0.000  0.001  0.000  0.000  0.694
 
band   2 # energy  -16.66143133 # occ.  2.00000000
 
ion      s     py     pz     px    dxy    dyz    dz2    dxz    dx2    tot
  1  0.000  0.000  0.061  0.000  0.000  0.000  0.000  0.000  0.000  0.061
  2  0.314  0.000  0.000  0.000  0.000  0.000  0.000  0.000  0.000  0.314
  3  0.314  0.000  0.000  0.000  0.000  0.000  0.000  0.000  0.000  0.314
tot  0.628  0.000  0.062  0.000  0.000  0.000  0.000  0.000  0.000  0.690
 
band   3 # energy   -9.35858549 # occ.  2.00000000
 
ion      s     py     pz     px    dxy    dyz    dz2    dxz    dx2    tot
  1  0.140  0.000  0.000  0.000  0.000  0.000  0.204  0.000  0.000  0.345
  2  0.017  0.000  0.124  0.000  0.000  0.000  0.000  0.000  0.000  0.141
  3  0.017  0.000  0.124  0.000  0.000  0.000  0.000  0.000  0.000  0.141
tot  0.174  0.000  0.248  0.000  0.000  0.000  0.204  0.000  0.000  0.627
 
band   4 # energy   -6.26757230 # occ.  2.00000000
 
ion      s     py     pz     px    dxy    dyz    dz2    dxz    dx2    tot
  1  0.001  0.005  0.000  0.002  0.456  0.000  0.000  0.000  0.152  0.615
  2  0.000  0.083  0.000  0.028  0.000  0.000  0.000  0.000  0.000  0.110
  3  0.000  0.083  0.000  0.028  0.000  0.000  0.000  0.000  0.000  0.110
tot  0.002  0.170  0.000  0.057  0.456  0.000  0.000  0.000  0.152  0.836
 
band   5 # energy   -6.23509059 # occ.  2.00000000
 
ion      s     py     pz     px    dxy    dyz    dz2    dxz    dx2    tot
  1  0.000  0.002  0.000  0.005  0.153  0.000  0.000  0.000  0.458  0.617
  2  0.000  0.028  0.000  0.083  0.000  0.000  0.000  0.000  0.000  0.110
  3  0.000  0.028  0.000  0.083  0.000  0.000  0.000  0.000  0.000  0.110
tot  0.000  0.057  0.000  0.170  0.153  0.000  0.000  0.000  0.458  0.838
 
band   6 # energy   -5.64393616 # occ.  2.00000000
 
ion      s     py     pz     px    dxy    dyz    dz2    dxz    dx2    tot
  1  0.000  0.000  0.049  0.000  0.000  0.053  0.000  0.018  0.000  0.120
  2  0.000  0.010  0.219  0.003  0.000  0.000  0.000  0.000  0.000  0.233
  3  0.000  0.010  0.219  0.003  0.000  0.000  0.000  0.000  0.000  0.233
tot  0.000  0.021  0.487  0.007  0.000  0.053  0.000  0.018  0.000  0.586
 
band   7 # energy   -5.13579015 # occ.  2.00000000
 
ion      s     py     pz     px    dxy    dyz    dz2    dxz    dx2    tot
  1  0.000  0.000  0.000  0.000  0.000  0.138  0.000  0.414  0.000  0.551
  2  0.000  0.037  0.000  0.113  0.000  0.000  0.000  0.000  0.000  0.150
  3  0.000  0.037  0.000  0.113  0.000  0.000  0.000  0.000  0.000  0.150
tot  0.000  0.075  0.000  0.225  0.000  0.138  0.000  0.414  0.000  0.851
 
band   8 # energy   -5.07473162 # occ.  2.00000000
 
ion      s     py     pz     px    dxy    dyz    dz2    dxz    dx2    tot
  1  0.000  0.000  0.011  0.000  0.000  0.357  0.000  0.119  0.000  0.487
  2  0.000  0.103  0.027  0.034  0.000  0.000  0.000  0.000  0.000  0.165
  3  0.000  0.103  0.027  0.034  0.000  0.000  0.000  0.000  0.000  0.165
tot  0.000  0.207  0.065  0.069  0.000  0.357  0.000  0.119  0.000  0.816
 
band   9 # energy   -3.87197378 # occ.  2.00000000
 
ion      s     py     pz     px    dxy    dyz    dz2    dxz    dx2    tot
  1  0.012  0.000  0.000  0.000  0.001  0.000  0.598  0.000  0.000  0.611
  2  0.002  0.000  0.070  0.000  0.000  0.000  0.000  0.000  0.000  0.073
  3  0.002  0.000  0.070  0.000  0.000  0.000  0.000  0.000  0.000  0.073
tot  0.017  0.001  0.141  0.000  0.001  0.000  0.598  0.000  0.000  0.757
 
band  10 # energy   -0.88903518 # occ.  0.00000000
 
ion      s     py     pz     px    dxy    dyz    dz2    dxz    dx2    tot
  1  0.000  0.000  0.000  0.000  0.000  0.266  0.000  0.089  0.000  0.355
  2  0.001  0.140  0.000  0.047  0.000  0.000  0.000  0.000  0.000  0.188
  3  0.001  0.140  0.000  0.047  0.000  0.000  0.000  0.000  0.000  0.188
tot  0.002  0.280  0.000  0.093  0.000  0.266  0.000  0.089  0.000  0.731
 
band  11 # energy   -0.85515438 # occ.  0.00000000
 
ion      s     py     pz     px    dxy    dyz    dz2    dxz    dx2    tot
  1  0.000  0.000  0.000  0.000  0.000  0.088  0.000  0.264  0.000  0.352
  2  0.000  0.048  0.000  0.143  0.000  0.000  0.000  0.000  0.000  0.190
  3  0.000  0.048  0.000  0.143  0.000  0.000  0.000  0.000  0.000  0.190
tot  0.000  0.095  0.000  0.286  0.000  0.088  0.000  0.264  0.000  0.733
 
band  12 # energy   -0.71344184 # occ.  0.00000000
 
ion      s     py     pz     px    dxy    dyz    dz2    dxz    dx2    tot
  1  0.000  0.013  0.000  0.004  0.218  0.000  0.001  0.000  0.073  0.310
  2  0.001  0.174  0.000  0.058  0.000  0.000  0.000  0.000  0.000  0.233
  3  0.001  0.174  0.000  0.058  0.000  0.000  0.000  0.000  0.000  0.233
tot  0.002  0.361  0.000  0.120  0.218  0.000  0.001  0.000  0.073  0.776
 
band  13 # energy   -0.69325704 # occ.  0.00000000
 
ion      s     py     pz     px    dxy    dyz    dz2    dxz    dx2    tot
  1  0.000  0.005  0.000  0.014  0.073  0.000  0.000  0.000  0.218  0.309
  2  0.000  0.059  0.000  0.176  0.000  0.000  0.000  0.000  0.000  0.235
  3  0.000  0.059  0.000  0.176  0.000  0.000  0.000  0.000  0.000  0.235
tot  0.000  0.122  0.000  0.366  0.073  0.000  0.000  0.000  0.218  0.779
 
band  14 # energy    1.69262298 # occ.  0.00000000
 
ion      s     py     pz     px    dxy    dyz    dz2    dxz    dx2    tot
  1  0.027  0.000  0.000  0.000  0.000  0.000  0.024  0.000  0.000  0.052
  2  0.020  0.001  0.004  0.000  0.000  0.000  0.000  0.000  0.000  0.025
  3  0.020  0.001  0.004  0.000  0.000  0.000  0.000  0.000  0.000  0.025
tot  0.068  0.002  0.007  0.001  0.000  0.000  0.024  0.000  0.000  0.102
 
band  15 # energy    1.82791212 # occ.  0.00000000
 
ion      s     py     pz     px    dxy    dyz    dz2    dxz    dx2    tot
  1  0.000  0.000  0.002  0.000  0.000  0.000  0.000  0.000  0.000  0.002
  2  0.002  0.000  0.015  0.000  0.000  0.000  0.000  0.000  0.000  0.018
  3  0.002  0.000  0.015  0.000  0.000  0.000  0.000  0.000  0.000  0.018
tot  0.004  0.000  0.032  0.000  0.000  0.000  0.000  0.000  0.000  0.037
 
band  16 # energy    2.22290025 # occ.  0.00000000
 
ion      s     py     pz     px    dxy    dyz    dz2    dxz    dx2    tot
  1  0.004  0.000  0.000  0.000  0.000  0.000  0.002  0.000  0.000  0.006
  2  0.003  0.000  0.000  0.000  0.000  0.000  0.000  0.000  0.000  0.003
  3  0.003  0.000  0.000  0.000  0.000  0.000  0.000  0.000  0.000  0.003
tot  0.010  0.000  0.000  0.000  0.000  0.000  0.002  0.000  0.000  0.013
 
band  17 # energy    2.51414910 # occ.  0.00000000
 
ion      s     py     pz     px    dxy    dyz    dz2    dxz    dx2    tot
  1  0.000  0.000  0.000  0.000  0.000  0.000  0.000  0.000  0.000  0.000
  2  0.001  0.000  0.004  0.000  0.000  0.000  0.000  0.000  0.000  0.005
  3  0.001  0.000  0.004  0.000  0.000  0.000  0.000  0.000  0.000  0.005
tot  0.001  0.000  0.008  0.000  0.000  0.000  0.000  0.000  0.000  0.010
 
band  18 # energy    2.81258896 # occ.  0.00000000
 
ion      s     py     pz     px    dxy    dyz    dz2    dxz    dx2    tot
  1  0.065  0.000  0.000  0.000  0.000  0.000  0.005  0.000  0.000  0.070
  2  0.039  0.001  0.005  0.000  0.000  0.000  0.000  0.000  0.000  0.045
  3  0.039  0.001  0.005  0.000  0.000  0.000  0.000  0.000  0.000  0.045
tot  0.144  0.002  0.010  0.001  0.000  0.000  0.005  0.000  0.000  0.161
 
band  19 # energy    3.13116250 # occ.  0.00000000
 
ion      s     py     pz     px    dxy    dyz    dz2    dxz    dx2    tot
  1  0.063  0.000  0.000  0.000  0.001  0.000  0.001  0.000  0.000  0.064
  2  0.032  0.001  0.025  0.000  0.000  0.000  0.000  0.000  0.000  0.058
  3  0.032  0.001  0.025  0.000  0.000  0.000  0.000  0.000  0.000  0.058
tot  0.127  0.001  0.050  0.000  0.001  0.000  0.001  0.000  0.000  0.180
 
band  20 # energy    3.49763401 # occ.  0.00000000
 
ion      s     py     pz     px    dxy    dyz    dz2    dxz    dx2    tot
  1  0.000  0.000  0.001  0.000  0.000  0.000  0.000  0.000  0.000  0.001
  2  0.001  0.000  0.007  0.000  0.000  0.000  0.000  0.000  0.000  0.008
  3  0.001  0.000  0.007  0.000  0.000  0.000  0.000  0.000  0.000  0.008
tot  0.003  0.000  0.014  0.000  0.000  0.000  0.000  0.000  0.000  0.017
 

 k-point    4 :    0.03750000 0.00000000 0.00000000     weight = 0.00769231

band   1 # energy  -17.83037760 # occ.  2.00000000
 
ion      s     py     pz     px    dxy    dyz    dz2    dxz    dx2    tot
  1  0.132  0.000  0.000  0.000  0.000  0.000  0.001  0.000  0.000  0.133
  2  0.276  0.000  0.005  0.000  0.000  0.000  0.000  0.000  0.000  0.281
  3  0.276  0.000  0.005  0.000  0.000  0.000  0.000  0.000  0.000  0.281
tot  0.683  0.001  0.010  0.000  0.000  0.000  0.001  0.000  0.000  0.694
 
band   2 # energy  -16.65575311 # occ.  2.00000000
 
ion      s     py     pz     px    dxy    dyz    dz2    dxz    dx2    tot
  1  0.000  0.000  0.061  0.000  0.000  0.001  0.000  0.000  0.000  0.062
  2  0.314  0.000  0.000  0.000  0.000  0.000  0.000  0.000  0.000  0.315
  3  0.314  0.000  0.000  0.000  0.000  0.000  0.000  0.000  0.000  0.315
tot  0.628  0.000  0.062  0.000  0.000  0.001  0.000  0.000  0.000  0.691
 
band   3 # energy   -9.34480579 # occ.  2.00000000
 
ion      s     py     pz     px    dxy    dyz    dz2    dxz    dx2    tot
  1  0.139  0.001  0.000  0.000  0.001  0.000  0.203  0.000  0.000  0.344
  2  0.017  0.000  0.124  0.000  0.000  0.000  0.000  0.000  0.000  0.142
  3  0.017  0.000  0.124  0.000  0.000  0.000  0.000  0.000  0.000  0.142
tot  0.173  0.001  0.249  0.000  0.001  0.000  0.203  0.000  0.000  0.627
 
band   4 # energy   -6.29506165 # occ.  2.00000000
 
ion      s     py     pz     px    dxy    dyz    dz2    dxz    dx2    tot
  1  0.003  0.005  0.000  0.002  0.451  0.000  0.000  0.000  0.150  0.611
  2  0.001  0.083  0.000  0.028  0.000  0.000  0.000  0.000  0.000  0.111
  3  0.001  0.083  0.000  0.028  0.000  0.000  0.000  0.000  0.000  0.111
tot  0.005  0.170  0.000  0.057  0.451  0.000  0.000  0.000  0.150  0.833
 
band   5 # energy   -6.22241003 # occ.  2.00000000
 
ion      s     py     pz     px    dxy    dyz    dz2    dxz    dx2    tot
  1  0.000  0.002  0.000  0.005  0.152  0.000  0.000  0.000  0.456  0.615
  2  0.000  0.028  0.000  0.083  0.000  0.000  0.000  0.000  0.000  0.111
  3  0.000  0.028  0.000  0.083  0.000  0.000  0.000  0.000  0.000  0.111
tot  0.000  0.057  0.000  0.172  0.152  0.000  0.000  0.000  0.456  0.837
 
band   6 # energy   -5.70567936 # occ.  2.00000000
 
ion      s     py     pz     px    dxy    dyz    dz2    dxz    dx2    tot
  1  0.000  0.000  0.041  0.000  0.000  0.093  0.000  0.031  0.000  0.165
  2  0.000  0.018  0.199  0.006  0.000  0.000  0.000  0.000  0.000  0.223
  3  0.000  0.018  0.199  0.006  0.000  0.000  0.000  0.000  0.000  0.223
tot  0.000  0.036  0.439  0.012  0.000  0.093  0.000  0.031  0.000  0.611
 
band   7 # energy   -5.15570508 # occ.  2.00000000
 
ion      s     py     pz     px    dxy    dyz    dz2    dxz    dx2    tot
  1  0.000  0.000  0.000  0.000  0.000  0.137  0.000  0.412  0.000  0.550
  2  0.000  0.038  0.000  0.113  0.000  0.000  0.000  0.000  0.000  0.150
  3  0.000  0.038  0.000  0.113  0.000  0.000  0.000  0.000  0.000  0.150
tot  0.000  0.075  0.000  0.225  0.000  0.137  0.000  0.412  0.000  0.850
 
band   8 # energy   -5.03090770 # occ.  2.00000000
 
ion      s     py     pz     px    dxy    dyz    dz2    dxz    dx2    tot
  1  0.000  0.000  0.020  0.000  0.000  0.312  0.000  0.104  0.000  0.436
  2  0.000  0.097  0.047  0.032  0.000  0.000  0.000  0.000  0.000  0.177
  3  0.000  0.097  0.047  0.032  0.000  0.000  0.000  0.000  0.000  0.177
tot  0.000  0.195  0.114  0.065  0.000  0.312  0.000  0.104  0.000  0.789
 
band   9 # energy   -3.87582187 # occ.  2.00000000
 
ion      s     py     pz     px    dxy    dyz    dz2    dxz    dx2    tot
  1  0.012  0.000  0.000  0.000  0.002  0.000  0.597  0.000  0.001  0.612
  2  0.002  0.001  0.070  0.000  0.000  0.000  0.000  0.000  0.000  0.073
  3  0.002  0.001  0.070  0.000  0.000  0.000  0.000  0.000  0.000  0.073
tot  0.017  0.002  0.140  0.001  0.002  0.000  0.597  0.000  0.001  0.758
 
band  10 # energy   -0.90914632 # occ.  0.00000000
 
ion      s     py     pz     px    dxy    dyz    dz2    dxz    dx2    tot
  1  0.000  0.000  0.000  0.000  0.000  0.271  0.000  0.090  0.000  0.361
  2  0.002  0.136  0.000  0.045  0.000  0.000  0.000  0.000  0.000  0.184