 vasp.5.4.1 24Jun15 (build Aug 25 2015 09:43:03) complex revision 0 including -D
 J
 executed on             LinuxIFC date 2016.03.17  23:34:26
 running on    8 total cores
 distrk:  each k-point on    8 cores,    1 groups
 distr:  one band on NCORES_PER_BAND=   4 cores,    2 groups


--------------------------------------------------------------------------------------------------------


 INCAR:
 POTCAR:    PAW_PBE W 08Apr2002                   
 POTCAR:    PAW_PBE S 06Sep2000                   

 ----------------------------------------------------------------------------- 
|                                                                             |
|  ADVICE TO THIS USER RUNNING 'VASP/VAMP'   (HEAR YOUR MASTER'S VOICE ...):  |
|                                                                             |
|      You have switched on vdW-DFT.                                          |
|      This routine was written and supplied by Jiri Klimes.                  |
|      We recommed that you carefully read and cite the following             |
|      publication                                                            |
|      J. Klimes, D.R. Bowler, A. Michelides                                  |
|        J. Phys.: Cond Matt. 22 022201 (2010)                                |
|      J. Klimes, D.R. Bowler, A. Michelides                                  |
|        Phys. Rev. B. 83, 195131 (2011)                                      |
|      and references therein.                                                |
|                                                                             |
 ----------------------------------------------------------------------------- 

 POTCAR:    PAW_PBE W 08Apr2002                   
   VRHFIN =W : 6s5d                                                             
   LEXCH  = PE                                                                  
   EATOM  =   204.6103 eV,   15.0384 Ry                                         
                                                                                
   TITEL  = PAW_PBE W 08Apr2002                                                 
   LULTRA =        F    use ultrasoft PP ?                                      
   IUNSCR =        1    unscreen: 0-lin 1-nonlin 2-no                           
   RPACOR =    2.330    partial core radius                                     
   POMASS =  183.850; ZVAL   =    6.000    mass and valenz                      
   RCORE  =    2.750    outmost cutoff radius                                   
   RWIGS  =    2.750; RWIGS  =    1.455    wigner-seitz radius (au A)           
   ENMAX  =  223.057; ENMIN  =  167.293 eV                                      
   RCLOC  =    2.147    cutoff for local pot                                    
   LCOR   =        T    correct aug charges                                     
   LPAW   =        T    paw PP                                                  
   EAUG   =  373.438                                                            
   DEXC   =    0.000                                                            
   RMAX   =    2.801    core radius for proj-oper                               
   RAUG   =    1.300    factor for augmentation sphere                          
   RDEP   =    2.886    radius for radial grids                                 
   RDEPT  =    2.230    core radius for aug-charge                              
                                                                                
   Atomic configuration                                                         
   16 entries                                                                   
     n  l   j            E        occ.                                          
     1  0  0.50    -69465.5836   2.0000                                         
     2  0  0.50    -11986.2642   2.0000                                         
     2  1  1.50    -10479.8616   6.0000                                         
     3  0  0.50     -2759.0758   2.0000                                         
     3  1  1.50     -2313.1857   6.0000                                         
     3  2  2.50     -1801.1185  10.0000                                         
     4  0  0.50      -567.6791   2.0000                                         
     4  1  1.50      -421.4694   6.0000                                         
     4  2  2.50      -236.3473  10.0000                                         
     4  3  3.50       -31.2666  14.0000                                         
     5  0  0.50       -77.1085   2.0000                                         
     5  1  1.50       -41.3856   6.0000                                         
     5  2  2.50        -3.3185   5.0000                                         
     6  0  0.50        -5.1438   1.0000                                         
     6  1  0.50        -3.8096   0.0000                                         
     5  3  2.50        -1.3606   0.0000                                         
   Description                                                                  
     l       E           TYP  RCUT    TYP  RCUT                                 
     2     -3.3185288     23  2.500                                             
     2     -1.5965414     23  2.500                                             
     0     -5.1438054     23  2.500                                             
     0      4.9117504     23  2.500                                             
     1      2.7211652     23  2.750                                             
     1     27.2116520     23  2.750                                             
  local pseudopotential read in
  partial core-charges read in
  partial kinetic energy density read in
  atomic valenz-charges read in
  non local Contribution for L=           2  read in
    real space projection operators read in
  non local Contribution for L=           2  read in
    real space projection operators read in
  non local Contribution for L=           0  read in
    real space projection operators read in
  non local Contribution for L=           0  read in
    real space projection operators read in
  non local Contribution for L=           1  read in
    real space projection operators read in
  non local Contribution for L=           1  read in
    real space projection operators read in
    PAW grid and wavefunctions read in
 
   number of l-projection  operators is LMAX  =           6
   number of lm-projection operators is LMMAX =          18
 
 POTCAR:    PAW_PBE S 06Sep2000                   
   VRHFIN =S : s2p4                                                             
   LEXCH  = PE                                                                  
   EATOM  =   276.8230 eV,   20.3459 Ry                                         
                                                                                
   TITEL  = PAW_PBE S 06Sep2000                                                 
   LULTRA =        F    use ultrasoft PP ?                                      
   IUNSCR =        1    unscreen: 0-lin 1-nonlin 2-no                           
   RPACOR =    1.500    partial core radius                                     
   POMASS =   32.066; ZVAL   =    6.000    mass and valenz                      
   RCORE  =    1.900    outmost cutoff radius                                   
   RWIGS  =    2.200; RWIGS  =    1.164    wigner-seitz radius (au A)           
   ENMAX  =  258.689; ENMIN  =  194.016 eV                                      
   ICORE  =        2    local potential                                         
   LCOR   =        T    correct aug charges                                     
   LPAW   =        T    paw PP                                                  
   EAUG   =  335.092                                                            
   DEXC   =    0.000                                                            
   RMAX   =    1.942    core radius for proj-oper                               
   RAUG   =    1.300    factor for augmentation sphere                          
   RDEP   =    1.954    radius for radial grids                                 
   RDEPT  =    1.744    core radius for aug-charge                              
                                                                                
   Atomic configuration                                                         
    6 entries                                                                   
     n  l   j            E        occ.                                          
     1  0  0.50     -2405.8406   2.0000                                         
     2  0  0.50      -211.7007   2.0000                                         
     2  1  1.50      -156.4958   6.0000                                         
     3  0  0.50       -17.2562   2.0000                                         
     3  1  0.50        -7.0085   4.0000                                         
     3  2  1.50        -6.8029   0.0000                                         
   Description                                                                  
     l       E           TYP  RCUT    TYP  RCUT                                 
     0    -17.2561641     23  1.900                                             
     0    -15.8743224     23  1.900                                             
     1     -7.0085400     23  1.900                                             
     1     -2.7779785     23  1.900                                             
     2     -6.8029130     23  1.900                                             
  local pseudopotential read in
  partial core-charges read in
  partial kinetic energy density read in
  atomic valenz-charges read in
  non local Contribution for L=           0  read in
    real space projection operators read in
  non local Contribution for L=           0  read in
    real space projection operators read in
  non local Contribution for L=           1  read in
    real space projection operators read in
  non local Contribution for L=           1  read in
    real space projection operators read in
    PAW grid and wavefunctions read in
 
   number of l-projection  operators is LMAX  =           4
   number of lm-projection operators is LMMAX =           8
 

 ----------------------------------------------------------------------------- 
|                                                                             |
|  ADVICE TO THIS USER RUNNING 'VASP/VAMP'   (HEAR YOUR MASTER'S VOICE ...):  |
|                                                                             |
|      You enforced a specific xc-type in the INCAR file,                     |
|      a different type was found on the POTCAR file                          |
|          I HOPE YOU KNOW, WHAT YOU ARE  DOING                               |
|                                                                             |
 ----------------------------------------------------------------------------- 

  PAW_PBE W 08Apr2002                   :
 energy of atom  1       EATOM= -204.6103
 kinetic energy error for atom=    0.0017 (will be added to EATOM!!)
  PAW_PBE S 06Sep2000                   :
 energy of atom  2       EATOM= -276.8230
 kinetic energy error for atom=    0.0020 (will be added to EATOM!!)
 
 
 POSCAR: WS2 full optimized                      
  positions in direct lattice
  No initial velocities read in
 exchange correlation table for  LEXCH =       43
   RHO(1)=    0.500       N(1)  =     2000
   RHO(2)=  100.500       N(2)  =     4000
 


--------------------------------------------------------------------------------------------------------


 ion  position               nearest neighbor table
   1  0.333  0.333  0.500-   2 2.42   2 2.42   3 2.42   3 2.42   2 2.42   3 2.42
   2  0.667  0.667  0.549-   1 2.42   1 2.42   1 2.42
   3  0.667  0.667  0.451-   1 2.42   1 2.42   1 2.42
 
  LATTYP: Found a hexagonal cell.
 ALAT       =     3.1950000000
 C/A-ratio  =    10.0000000000
  
  Lattice vectors:
  
 A1 = (   0.0000000000,  -3.1950000000,   0.0000000000)
 A2 = (  -2.7669511530,   1.5975000000,   0.0000000000)
 A3 = (   0.0000000000,   0.0000000000, -31.9500000000)


Analysis of symmetry for initial positions (statically):
=====================================================================
 Subroutine PRICEL returns:
 Original cell was already a primitive cell.
 

 Routine SETGRP: Setting up the symmetry group for a 
 hexagonal supercell.


 Subroutine GETGRP returns: Found 12 space group operations
 (whereof 12 operations were pure point group operations)
 out of a pool of 24 trial point group operations.


The static configuration has the point symmetry D_3h.


Analysis of symmetry for dynamics (positions and initial velocities):
=====================================================================
 Subroutine PRICEL returns:
 Original cell was already a primitive cell.
 

 Routine SETGRP: Setting up the symmetry group for a 
 hexagonal supercell.


 Subroutine GETGRP returns: Found 12 space group operations
 (whereof 12 operations were pure point group operations)
 out of a pool of 24 trial point group operations.


The dynamic configuration has the point symmetry D_3h.


Analysis of constrained symmetry for selective dynamics:
=====================================================================
 Subroutine PRICEL returns:
 Original cell was already a primitive cell.
 

 Routine SETGRP: Setting up the symmetry group for a 
 hexagonal supercell.


 Subroutine GETGRP returns: Found 12 space group operations
 (whereof 12 operations were pure point group operations)
 out of a pool of 24 trial point group operations.


The constrained configuration has the point symmetry D_3h.
 
 
 KPOINTS: Points = G M K G , Index = 0 40 69 129 ,
  k-points in reciprocal lattice
Space group operators:
 irot       det(A)        alpha          n_x          n_y          n_z        tau_x        tau_y        tau_z
    1     1.000000     0.000000     1.000000     0.000000     0.000000     0.000000     0.000000     0.000000
    2    -1.000000    60.000000     0.000000     0.000000     1.000000     0.000000     0.000000     0.000000
    3     1.000000   120.000000     0.000000     0.000000     1.000000     0.000000     0.000000     0.000000
    4    -1.000000   180.000000     0.000000     0.000000     1.000000     0.000000     0.000000     0.000000
    5     1.000000   120.000000     0.000000     0.000000    -1.000000     0.000000     0.000000     0.000000
    6    -1.000000    60.000000     0.000000     0.000000    -1.000000     0.000000     0.000000     0.000000
    7    -1.000000   180.000000     0.000000     1.000000     0.000000     0.000000     0.000000     0.000000
    8     1.000000   180.000000     0.500000    -0.866025     0.000000     0.000000     0.000000     0.000000
    9    -1.000000   180.000000     0.866025    -0.500000     0.000000     0.000000     0.000000     0.000000
   10     1.000000   180.000000     1.000000     0.000000     0.000000     0.000000     0.000000     0.000000
   11    -1.000000   180.000000     0.866025     0.500000     0.000000     0.000000     0.000000     0.000000
   12     1.000000   180.000000    -0.500000    -0.866025     0.000000     0.000000     0.000000     0.000000


--------------------------------------------------------------------------------------------------------




 Dimension of arrays:
   k-points           NKPTS =    130   k-points in BZ     NKDIM =    130   number of bands    NBANDS=     32
   number of dos      NEDOS =    301   number of ions     NIONS =      3
   non local maximal  LDIM  =      6   non local SUM 2l+1 LMDIM =     18
   total plane-waves  NPLWV =  58320
   max r-space proj   IRMAX =      1   max aug-charges    IRDMAX=  11984
   dimension x,y,z NGX =    18 NGY =   18 NGZ =  180
   dimension x,y,z NGXF=    36 NGYF=   36 NGZF=  360
   support grid    NGXF=    36 NGYF=   36 NGZF=  360
   ions per type =               1   2
 NGX,Y,Z   is equivalent  to a cutoff of   9.37,  9.37,  9.37 a.u.
 NGXF,Y,Z  is equivalent  to a cutoff of  18.73, 18.73, 18.73 a.u.


 I would recommend the setting:
   dimension x,y,z NGX =    17 NGY =   17 NGZ =  175
 SYSTEM =  ZrSe2                                   
 POSCAR =  WS2 full optimized                      

 Startparameter for this run:
   NWRITE =      2    write-flag & timer
   PREC   = normal    normal or accurate (medium, high low for compatibility)
   ISTART =      0    job   : 0-new  1-cont  2-samecut
   ICHARG =     11    charge: 1-file 2-atom 10-const
   ISPIN  =      1    spin polarized calculation?
   LNONCOLLINEAR =      F non collinear calculations
   LSORBIT =      F    spin-orbit coupling
   INIWAV =      1    electr: 0-lowe 1-rand  2-diag
   LASPH  =      F    aspherical Exc in radial PAW
   METAGGA=      F    non-selfconsistent MetaGGA calc.

 Electronic Relaxation 1
   ENCUT  =  500.0 eV  36.75 Ry    6.06 a.u.   5.83  5.83 58.25*2*pi/ulx,y,z
   ENINI  =  500.0     initial cutoff
   ENAUG  =  373.4 eV  augmentation charge cutoff
   NELM   =     60;   NELMIN=  2; NELMDL= -5     # of ELM steps 
   EDIFF  = 0.1E-05   stopping-criterion for ELM
   LREAL  =      F    real-space projection
   NLSPLINE    = F    spline interpolate recip. space projectors
   LCOMPAT=      F    compatible to vasp.4.4
   GGA_COMPAT  = T    GGA compatible to vasp.4.4-vasp.4.6
   LMAXPAW     = -100 max onsite density
   LMAXMIX     =    2 max onsite mixed and CHGCAR
   VOSKOWN=      0    Vosko Wilk Nusair interpolation
   ROPT   =    0.00000   0.00000
 Ionic relaxation
   EDIFFG = 0.1E-04   stopping-criterion for IOM
   NSW    =      0    number of steps for IOM
   NBLOCK =      1;   KBLOCK =      1    inner block; outer block 
   IBRION =     -1    ionic relax: 0-MD 1-quasi-New 2-CG
   NFREE  =      0    steps in history (QN), initial steepest desc. (CG)
   ISIF   =      2    stress and relaxation
   IWAVPR =     10    prediction:  0-non 1-charg 2-wave 3-comb
   ISYM   =      2    0-nonsym 1-usesym 2-fastsym
   LCORR  =      T    Harris-Foulkes like correction to forces

   POTIM  = 0.5000    time-step for ionic-motion
   TEIN   =    0.0    initial temperature
   TEBEG  =    0.0;   TEEND  =   0.0 temperature during run
   SMASS  =  -3.00    Nose mass-parameter (am)
   estimated Nose-frequenzy (Omega)   =  0.10E-29 period in steps =****** mass=  -0.233E-27a.u.
   SCALEE = 1.0000    scale energy and forces
   NPACO  =    256;   APACO  = 16.0  distance and # of slots for P.C.
   PSTRESS=    0.0 pullay stress

  Mass of Ions in am
   POMASS = 183.85 32.07
  Ionic Valenz
   ZVAL   =   6.00  6.00
  Atomic Wigner-Seitz radii
   RWIGS  =  -1.00 -1.00
  virtual crystal weights 
   VCA    =   1.00  1.00
   NELECT =      18.0000    total number of electrons
   NUPDOWN=      -1.0000    fix difference up-down

 DOS related values:
   EMIN   =  10.00;   EMAX   =-10.00  energy-range for DOS
   EFERMI =   0.00
   ISMEAR =     0;   SIGMA  =   0.10  broadening in eV -4-tet -1-fermi 0-gaus

 Electronic relaxation 2 (details)
   IALGO  =     38    algorithm
   LDIAG  =      T    sub-space diagonalisation (order eigenvalues)
   LSUBROT=      F    optimize rotation matrix (better conditioning)
   TURBO    =      0    0=normal 1=particle mesh
   IRESTART =      0    0=no restart 2=restart with 2 vectors
   NREBOOT  =      0    no. of reboots
   NMIN     =      0    reboot dimension
   EREF     =   0.00    reference energy to select bands
   IMIX   =      4    mixing-type and parameters
     AMIX     =   0.40;   BMIX     =  1.00
     AMIX_MAG =   1.60;   BMIX_MAG =  1.00
     AMIN     =   0.10
     WC   =   100.;   INIMIX=   1;  MIXPRE=   1;  MAXMIX= -45

 Intra band minimization:
   WEIMIN = 0.0000     energy-eigenvalue tresh-hold
   EBREAK =  0.78E-08  absolut break condition
   DEPER  =   0.30     relativ break condition  

   TIME   =   0.40     timestep for ELM

  volume/ion in A,a.u.               =      94.15       635.36
  Fermi-wavevector in a.u.,A,eV,Ry     =   0.653910  1.235711  5.817827  0.427598
  Thomas-Fermi vector in A             =   1.724300
 
 Write flags
   LWAVE  =      F    write WAVECAR
   LCHARG =      F    write CHGCAR
   LVTOT  =      T    write LOCPOT, total local potential
   LVHAR  =      F    write LOCPOT, Hartree potential only
   LELF   =      F    write electronic localiz. function (ELF)
   LORBIT =     11    0 simple, 1 ext, 2 COOP (PROOUT)


 Dipole corrections
   LMONO  =      F    monopole corrections only (constant potential shift)
   LDIPOL =      F    correct potential (dipole corrections)
   IDIPOL =      0    1-x, 2-y, 3-z, 4-all directions 
   EPSILON=  1.0000000 bulk dielectric constant

 Exchange correlation treatment:
   GGA     =    MK    GGA type
   LEXCH   =    43    internal setting for exchange type
   VOSKOWN=      0    Vosko Wilk Nusair interpolation
   LHFCALC =     F    Hartree Fock is set to
   LHFONE  =     F    Hartree Fock one center treatment
   AEXX    =    0.0000 exact exchange contribution

 vdW DFT:
   LUSE_VDW   =     T    switch on vdW DFT
   Zab_VDW    =-.8491    correlation parameter
   PARAM1     =0.1234
   PARAM2     =1.0000
   PARAM3     =0.0000

 Linear response parameters
   LEPSILON=     F    determine dielectric tensor
   LRPA    =     F    only Hartree local field effects (RPA)
   LNABLA  =     F    use nabla operator in PAW spheres
   LVEL    =     F    velocity operator in full k-point grid
   LINTERFAST=   F  fast interpolation
   KINTER  =     0    interpolate to denser k-point grid
   CSHIFT  =0.1000    complex shift for real part using Kramers Kronig
   OMEGAMAX=  -1.0    maximum frequency
   DEG_THRESHOLD= 0.2000000E-02 threshold for treating states as degnerate
   RTIME   =    0.100 relaxation time in fs

 Orbital magnetization related:
   ORBITALMAG=     F  switch on orbital magnetization
   LCHIMAG   =     F  perturbation theory with respect to B field
   DQ        =  0.001000  dq finite difference perturbation B field



--------------------------------------------------------------------------------------------------------


 Static calculation
 charge density and potential remain constant during run
 non-spin polarized calculation
 Variant of blocked Davidson
 Davidson routine will perform the subspace rotation
 perform sub-space diagonalisation
    after iterative eigenvector-optimisation
 no mixing
 using additional bands           23
 reciprocal scheme for non local part
 use partial core corrections
 calculate Harris-corrections to forces 
   (improved forces if not selfconsistent)
 use gradient corrections 
 WARNING: stress and forces are not correct
  (second derivative of E(xc) not defined)
 use of overlap-Matrix (Vanderbilt PP)
 Gauss-broadening in eV      SIGMA  =   0.10


--------------------------------------------------------------------------------------------------------


  energy-cutoff  :      500.00
  volume of cell :      282.45
      direct lattice vectors                 reciprocal lattice vectors
     2.766951153 -1.597500000  0.000000000     0.180704310 -0.312989045  0.000000000
     2.766951153  1.597500000  0.000000000     0.180704310  0.312989045  0.000000000
     0.000000000  0.000000000 31.950000000     0.000000000  0.000000000  0.031298905

  length of vectors
     3.194999990  3.194999990 31.950000000     0.361408620  0.361408620  0.031298905


 
 k-points in units of 2pi/SCALE and weight: Points = G M K G , Index = 0 40 69 129 ,
   0.00000000  0.00000000  0.00000000       0.008
   0.00721688 -0.01250000  0.00000000       0.008
   0.01443376 -0.02500000  0.00000000       0.008
   0.02165064 -0.03750000  0.00000000       0.008
   0.02886751 -0.05000000  0.00000000       0.008
   0.03608439 -0.06250000  0.00000000       0.008
   0.04330127 -0.07500000  0.00000000       0.008
   0.05051815 -0.08750000  0.00000000       0.008
   0.05773503 -0.10000000  0.00000000       0.008
   0.06495191 -0.11250000  0.00000000       0.008
   0.07216878 -0.12500000  0.00000000       0.008
   0.07938566 -0.13750000  0.00000000       0.008
   0.08660254 -0.15000000  0.00000000       0.008
   0.09381942 -0.16250000  0.00000000       0.008
   0.10103630 -0.17500000  0.00000000       0.008
   0.10825318 -0.18750000  0.00000000       0.008
   0.11547005 -0.20000000  0.00000000       0.008
   0.12268693 -0.21250000  0.00000000       0.008
   0.12990381 -0.22500000  0.00000000       0.008
   0.13712069 -0.23750000  0.00000000       0.008
   0.14433757 -0.25000000  0.00000000       0.008
   0.15155445 -0.26250000  0.00000000       0.008
   0.15877132 -0.27500000  0.00000000       0.008
   0.16598820 -0.28750000  0.00000000       0.008
   0.17320508 -0.30000000  0.00000000       0.008
   0.18042196 -0.31250000  0.00000000       0.008
   0.18763884 -0.32500000  0.00000000       0.008
   0.19485572 -0.33750000  0.00000000       0.008
   0.20207260 -0.35000000  0.00000000       0.008
   0.20928947 -0.36250000  0.00000000       0.008
   0.21650635 -0.37500000  0.00000000       0.008
   0.22372323 -0.38750000  0.00000000       0.008
   0.23094011 -0.40000000  0.00000000       0.008
   0.23815699 -0.41250000  0.00000000       0.008
   0.24537387 -0.42500000  0.00000000       0.008
   0.25259074 -0.43750000  0.00000000       0.008
   0.25980762 -0.45000000  0.00000000       0.008
   0.26702450 -0.46250000  0.00000000       0.008
   0.27424138 -0.47500000  0.00000000       0.008
   0.28145826 -0.48750000  0.00000000       0.008
   0.28867514 -0.50000000  0.00000000       0.008
   0.29862945 -0.49427586  0.00000000       0.008
   0.30858377 -0.48855172  0.00000000       0.008
   0.31853808 -0.48282759  0.00000000       0.008
   0.32849240 -0.47710345  0.00000000       0.008
   0.33844671 -0.47137931  0.00000000       0.008
   0.34840103 -0.46565517  0.00000000       0.008
   0.35835534 -0.45993103  0.00000000       0.008
   0.36830966 -0.45420690  0.00000000       0.008
   0.37826397 -0.44848276  0.00000000       0.008
   0.38821829 -0.44275862  0.00000000       0.008
   0.39817260 -0.43703448  0.00000000       0.008
   0.40812692 -0.43131034  0.00000000       0.008
   0.41808123 -0.42558621  0.00000000       0.008
   0.42803555 -0.41986207  0.00000000       0.008
   0.43798986 -0.41413793  0.00000000       0.008
   0.44794418 -0.40841379  0.00000000       0.008
   0.45789849 -0.40268966  0.00000000       0.008
   0.46785281 -0.39696552  0.00000000       0.008
   0.47780712 -0.39124138  0.00000000       0.008
   0.48776144 -0.38551724  0.00000000       0.008
   0.49771575 -0.37979310  0.00000000       0.008
   0.50767007 -0.37406897  0.00000000       0.008
   0.51762438 -0.36834483  0.00000000       0.008
   0.52757870 -0.36262069  0.00000000       0.008
   0.53753301 -0.35689655  0.00000000       0.008
   0.54748733 -0.35117241  0.00000000       0.008
   0.55744164 -0.34544828  0.00000000       0.008
   0.56739596 -0.33972414  0.00000000       0.008
   0.57735027 -0.33400000  0.00000000       0.008
   0.56772777 -0.32843333  0.00000000       0.008
   0.55810526 -0.32286667  0.00000000       0.008
   0.54848276 -0.31730000  0.00000000       0.008
   0.53886025 -0.31173333  0.00000000       0.008
   0.52923775 -0.30616667  0.00000000       0.008
   0.51961524 -0.30060000  0.00000000       0.008
   0.50999274 -0.29503333  0.00000000       0.008
   0.50037024 -0.28946667  0.00000000       0.008
   0.49074773 -0.28390000  0.00000000       0.008
   0.48112523 -0.27833333  0.00000000       0.008
   0.47150272 -0.27276667  0.00000000       0.008
   0.46188022 -0.26720000  0.00000000       0.008
   0.45225771 -0.26163333  0.00000000       0.008
   0.44263521 -0.25606667  0.00000000       0.008
   0.43301270 -0.25050000  0.00000000       0.008
   0.42339020 -0.24493333  0.00000000       0.008
   0.41376769 -0.23936667  0.00000000       0.008
   0.40414519 -0.23380000  0.00000000       0.008
   0.39452269 -0.22823333  0.00000000       0.008
   0.38490018 -0.22266667  0.00000000       0.008
   0.37527768 -0.21710000  0.00000000       0.008
   0.36565517 -0.21153333  0.00000000       0.008
   0.35603267 -0.20596667  0.00000000       0.008
   0.34641016 -0.20040000  0.00000000       0.008
   0.33678766 -0.19483333  0.00000000       0.008
   0.32716515 -0.18926667  0.00000000       0.008
   0.31754265 -0.18370000  0.00000000       0.008
   0.30792014 -0.17813333  0.00000000       0.008
   0.29829764 -0.17256667  0.00000000       0.008
   0.28867514 -0.16700000  0.00000000       0.008
   0.27905263 -0.16143333  0.00000000       0.008
   0.26943013 -0.15586667  0.00000000       0.008
   0.25980762 -0.15030000  0.00000000       0.008
   0.25018512 -0.14473333  0.00000000       0.008
   0.24056261 -0.13916667  0.00000000       0.008
   0.23094011 -0.13360000  0.00000000       0.008
   0.22131760 -0.12803333  0.00000000       0.008
   0.21169510 -0.12246667  0.00000000       0.008
   0.20207260 -0.11690000  0.00000000       0.008
   0.19245009 -0.11133333  0.00000000       0.008
   0.18282759 -0.10576667  0.00000000       0.008
   0.17320508 -0.10020000  0.00000000       0.008
   0.16358258 -0.09463333  0.00000000       0.008
   0.15396007 -0.08906667  0.00000000       0.008
   0.14433757 -0.08350000  0.00000000       0.008
   0.13471506 -0.07793333  0.00000000       0.008
   0.12509256 -0.07236667  0.00000000       0.008
   0.11547005 -0.06680000  0.00000000       0.008
   0.10584755 -0.06123333  0.00000000       0.008
   0.09622505 -0.05566667  0.00000000       0.008
   0.08660254 -0.05010000  0.00000000       0.008
   0.07698004 -0.04453333  0.00000000       0.008
   0.06735753 -0.03896667  0.00000000       0.008
   0.05773503 -0.03340000  0.00000000       0.008
   0.04811252 -0.02783333  0.00000000       0.008
   0.03849002 -0.02226667  0.00000000       0.008
   0.02886751 -0.01670000  0.00000000       0.008
   0.01924501 -0.01113333  0.00000000       0.008
   0.00962250 -0.00556667  0.00000000       0.008
   0.00000000  0.00000000  0.00000000       0.008
 
 k-points in reciprocal lattice and weights: Points = G M K G , Index = 0 40 69 129 ,
   0.00000000  0.00000000  0.00000000       0.008
   0.01250000  0.00000000  0.00000000       0.008
   0.02500000  0.00000000  0.00000000       0.008
   0.03750000  0.00000000  0.00000000       0.008
   0.05000000  0.00000000  0.00000000       0.008
   0.06250000  0.00000000  0.00000000       0.008
   0.07500000  0.00000000  0.00000000       0.008
   0.08750000  0.00000000  0.00000000       0.008
   0.10000000  0.00000000  0.00000000       0.008
   0.11250000  0.00000000  0.00000000       0.008
   0.12500000  0.00000000  0.00000000       0.008
   0.13750000  0.00000000  0.00000000       0.008
   0.15000000  0.00000000  0.00000000       0.008
   0.16250000  0.00000000  0.00000000       0.008
   0.17500000  0.00000000  0.00000000       0.008
   0.18750000  0.00000000  0.00000000       0.008
   0.20000000  0.00000000  0.00000000       0.008
   0.21250000  0.00000000  0.00000000       0.008
   0.22500000  0.00000000  0.00000000       0.008
   0.23750000  0.00000000  0.00000000       0.008
   0.25000000  0.00000000  0.00000000       0.008
   0.26250000  0.00000000  0.00000000       0.008
   0.27500000  0.00000000  0.00000000       0.008
   0.28750000  0.00000000  0.00000000       0.008
   0.30000000  0.00000000  0.00000000       0.008
   0.31250000  0.00000000  0.00000000       0.008
   0.32500000  0.00000000  0.00000000       0.008
   0.33750000  0.00000000  0.00000000       0.008
   0.35000000  0.00000000  0.00000000       0.008
   0.36250000  0.00000000  0.00000000       0.008
   0.37500000  0.00000000  0.00000000       0.008
   0.38750000  0.00000000  0.00000000       0.008
   0.40000000  0.00000000  0.00000000       0.008
   0.41250000  0.00000000  0.00000000       0.008
   0.42500000  0.00000000  0.00000000       0.008
   0.43750000  0.00000000  0.00000000       0.008
   0.45000000  0.00000000  0.00000000       0.008
   0.46250000  0.00000000  0.00000000       0.008
   0.47500000  0.00000000  0.00000000       0.008
   0.48750000  0.00000000  0.00000000       0.008
   0.50000000  0.00000000  0.00000000       0.008
   0.50575862  0.01148276  0.00000000       0.008
   0.51151724  0.02296552  0.00000000       0.008
   0.51727586  0.03444828  0.00000000       0.008
   0.52303448  0.04593103  0.00000000       0.008
   0.52879310  0.05741379  0.00000000       0.008
   0.53455172  0.06889655  0.00000000       0.008
   0.54031034  0.08037931  0.00000000       0.008
   0.54606897  0.09186207  0.00000000       0.008
   0.55182759  0.10334483  0.00000000       0.008
   0.55758621  0.11482759  0.00000000       0.008
   0.56334483  0.12631034  0.00000000       0.008
   0.56910345  0.13779310  0.00000000       0.008
   0.57486207  0.14927586  0.00000000       0.008
   0.58062069  0.16075862  0.00000000       0.008
   0.58637931  0.17224138  0.00000000       0.008
   0.59213793  0.18372414  0.00000000       0.008
   0.59789655  0.19520690  0.00000000       0.008
   0.60365517  0.20668966  0.00000000       0.008
   0.60941379  0.21817241  0.00000000       0.008
   0.61517241  0.22965517  0.00000000       0.008
   0.62093103  0.24113793  0.00000000       0.008
   0.62668966  0.25262069  0.00000000       0.008
   0.63244828  0.26410345  0.00000000       0.008
   0.63820690  0.27558621  0.00000000       0.008
   0.64396552  0.28706897  0.00000000       0.008
   0.64972414  0.29855172  0.00000000       0.008
   0.65548276  0.31003448  0.00000000       0.008
   0.66124138  0.32151724  0.00000000       0.008
   0.66700000  0.33300000  0.00000000       0.008
   0.65588333  0.32745000  0.00000000       0.008
   0.64476667  0.32190000  0.00000000       0.008
   0.63365000  0.31635000  0.00000000       0.008
   0.62253333  0.31080000  0.00000000       0.008
   0.61141667  0.30525000  0.00000000       0.008
   0.60030000  0.29970000  0.00000000       0.008
   0.58918333  0.29415000  0.00000000       0.008
   0.57806667  0.28860000  0.00000000       0.008
   0.56695000  0.28305000  0.00000000       0.008
   0.55583333  0.27750000  0.00000000       0.008
   0.54471667  0.27195000  0.00000000       0.008
   0.53360000  0.26640000  0.00000000       0.008
   0.52248333  0.26085000  0.00000000       0.008
   0.51136667  0.25530000  0.00000000       0.008
   0.50025000  0.24975000  0.00000000       0.008
   0.48913333  0.24420000  0.00000000       0.008
   0.47801667  0.23865000  0.00000000       0.008
   0.46690000  0.23310000  0.00000000       0.008
   0.45578333  0.22755000  0.00000000       0.008
   0.44466667  0.22200000  0.00000000       0.008
   0.43355000  0.21645000  0.00000000       0.008
   0.42243333  0.21090000  0.00000000       0.008
   0.41131667  0.20535000  0.00000000       0.008
   0.40020000  0.19980000  0.00000000       0.008
   0.38908333  0.19425000  0.00000000       0.008
   0.37796667  0.18870000  0.00000000       0.008
   0.36685000  0.18315000  0.00000000       0.008
   0.35573333  0.17760000  0.00000000       0.008
   0.34461667  0.17205000  0.00000000       0.008
   0.33350000  0.16650000  0.00000000       0.008
   0.32238333  0.16095000  0.00000000       0.008
   0.31126667  0.15540000  0.00000000       0.008
   0.30015000  0.14985000  0.00000000       0.008
   0.28903333  0.14430000  0.00000000       0.008
   0.27791667  0.13875000  0.00000000       0.008
   0.26680000  0.13320000  0.00000000       0.008
   0.25568333  0.12765000  0.00000000       0.008
   0.24456667  0.12210000  0.00000000       0.008
   0.23345000  0.11655000  0.00000000       0.008
   0.22233333  0.11100000  0.00000000       0.008
   0.21121667  0.10545000  0.00000000       0.008
   0.20010000  0.09990000  0.00000000       0.008
   0.18898333  0.09435000  0.00000000       0.008
   0.17786667  0.08880000  0.00000000       0.008
   0.16675000  0.08325000  0.00000000       0.008
   0.15563333  0.07770000  0.00000000       0.008
   0.14451667  0.07215000  0.00000000       0.008
   0.13340000  0.06660000  0.00000000       0.008
   0.12228333  0.06105000  0.00000000       0.008
   0.11116667  0.05550000  0.00000000       0.008
   0.10005000  0.04995000  0.00000000       0.008
   0.08893333  0.04440000  0.00000000       0.008
   0.07781667  0.03885000  0.00000000       0.008
   0.06670000  0.03330000  0.00000000       0.008
   0.05558333  0.02775000  0.00000000       0.008
   0.04446667  0.02220000  0.00000000       0.008
   0.03335000  0.01665000  0.00000000       0.008
   0.02223333  0.01110000  0.00000000       0.008
   0.01111667  0.00555000  0.00000000       0.008
   0.00000000  0.00000000  0.00000000       0.008
 
 position of ions in fractional coordinates (direct lattice) 
   0.33333300  0.33333300  0.50000000
   0.66666700  0.66666700  0.54920600
   0.66666700  0.66666700  0.45079400
 
 position of ions in cartesian coordinates  (Angst):
   1.84463226  0.00000000 15.97500000
   3.68927005  0.00000000 17.54713170
   3.68927005  0.00000000 14.40286830
 


--------------------------------------------------------------------------------------------------------


 k-point  1 :   0.0000 0.0000 0.0000  plane waves:    7143
 k-point  2 :   0.0125 0.0000 0.0000  plane waves:    7147
 k-point  3 :   0.0250 0.0000 0.0000  plane waves:    7133
 k-point  4 :   0.0375 0.0000 0.0000  plane waves:    7135
 k-point  5 :   0.0500 0.0000 0.0000  plane waves:    7140
 k-point  6 :   0.0625 0.0000 0.0000  plane waves:    7140
 k-point  7 :   0.0750 0.0000 0.0000  plane waves:    7138
 k-point  8 :   0.0875 0.0000 0.0000  plane waves:    7128
 k-point  9 :   0.1000 0.0000 0.0000  plane waves:    7120
 k-point 10 :   0.1125 0.0000 0.0000  plane waves:    7130
 k-point 11 :   0.1250 0.0000 0.0000  plane waves:    7134
 k-point 12 :   0.1375 0.0000 0.0000  plane waves:    7124
 k-point 13 :   0.1500 0.0000 0.0000  plane waves:    7120
 k-point 14 :   0.1625 0.0000 0.0000  plane waves:    7122
 k-point 15 :   0.1750 0.0000 0.0000  plane waves:    7128
 k-point 16 :   0.1875 0.0000 0.0000  plane waves:    7132
 k-point 17 :   0.2000 0.0000 0.0000  plane waves:    7132
 k-point 18 :   0.2125 0.0000 0.0000  plane waves:    7136
 k-point 19 :   0.2250 0.0000 0.0000  plane waves:    7142
 k-point 20 :   0.2375 0.0000 0.0000  plane waves:    7140
 k-point 21 :   0.2500 0.0000 0.0000  plane waves:    7144
 k-point 22 :   0.2625 0.0000 0.0000  plane waves:    7150
 k-point 23 :   0.2750 0.0000 0.0000  plane waves:    7164
 k-point 24 :   0.2875 0.0000 0.0000  plane waves:    7172
 k-point 25 :   0.3000 0.0000 0.0000  plane waves:    7162
 k-point 26 :   0.3125 0.0000 0.0000  plane waves:    7180
 k-point 27 :   0.3250 0.0000 0.0000  plane waves:    7182
 k-point 28 :   0.3375 0.0000 0.0000  plane waves:    7204
 k-point 29 :   0.3500 0.0000 0.0000  plane waves:    7206
 k-point 30 :   0.3625 0.0000 0.0000  plane waves:    7206
 k-point 31 :   0.3750 0.0000 0.0000  plane waves:    7212
 k-point 32 :   0.3875 0.0000 0.0000  plane waves:    7214
 k-point 33 :   0.4000 0.0000 0.0000  plane waves:    7220
 k-point 34 :   0.4125 0.0000 0.0000  plane waves:    7202
 k-point 35 :   0.4250 0.0000 0.0000  plane waves:    7210
 k-point 36 :   0.4375 0.0000 0.0000  plane waves:    7218
 k-point 37 :   0.4500 0.0000 0.0000  plane waves:    7210
 k-point 38 :   0.4625 0.0000 0.0000  plane waves:    7202
 k-point 39 :   0.4750 0.0000 0.0000  plane waves:    7176
 k-point 40 :   0.4875 0.0000 0.0000  plane waves:    7182
 k-point 41 :   0.5000 0.0000 0.0000  plane waves:    7164
 k-point 42 :   0.5058 0.0115 0.0000  plane waves:    7188
 k-point 43 :   0.5115 0.0230 0.0000  plane waves:    7184
 k-point 44 :   0.5173 0.0344 0.0000  plane waves:    7188
 k-point 45 :   0.5230 0.0459 0.0000  plane waves:    7192
 k-point 46 :   0.5288 0.0574 0.0000  plane waves:    7186
 k-point 47 :   0.5346 0.0689 0.0000  plane waves:    7184
 k-point 48 :   0.5403 0.0804 0.0000  plane waves:    7180
 k-point 49 :   0.5461 0.0919 0.0000  plane waves:    7186
 k-point 50 :   0.5518 0.1033 0.0000  plane waves:    7172
 k-point 51 :   0.5576 0.1148 0.0000  plane waves:    7162
 k-point 52 :   0.5633 0.1263 0.0000  plane waves:    7168
 k-point 53 :   0.5691 0.1378 0.0000  plane waves:    7168
 k-point 54 :   0.5749 0.1493 0.0000  plane waves:    7172
 k-point 55 :   0.5806 0.1608 0.0000  plane waves:    7158
 k-point 56 :   0.5864 0.1722 0.0000  plane waves:    7156
 k-point 57 :   0.5921 0.1837 0.0000  plane waves:    7148
 k-point 58 :   0.5979 0.1952 0.0000  plane waves:    7131
 k-point 59 :   0.6037 0.2067 0.0000  plane waves:    7138
 k-point 60 :   0.6094 0.2182 0.0000  plane waves:    7144
 k-point 61 :   0.6152 0.2297 0.0000  plane waves:    7150
 k-point 62 :   0.6209 0.2411 0.0000  plane waves:    7146
 k-point 63 :   0.6267 0.2526 0.0000  plane waves:    7152
 k-point 64 :   0.6324 0.2641 0.0000  plane waves:    7160
 k-point 65 :   0.6382 0.2756 0.0000  plane waves:    7170
 k-point 66 :   0.6440 0.2871 0.0000  plane waves:    7172
 k-point 67 :   0.6497 0.2986 0.0000  plane waves:    7172
 k-point 68 :   0.6555 0.3100 0.0000  plane waves:    7154
 k-point 69 :   0.6612 0.3215 0.0000  plane waves:    7156
 k-point 70 :   0.6670 0.3330 0.0000  plane waves:    7156
 k-point 71 :   0.6559 0.3275 0.0000  plane waves:    7154
 k-point 72 :   0.6448 0.3219 0.0000  plane waves:    7152
 k-point 73 :   0.6337 0.3164 0.0000  plane waves:    7154
 k-point 74 :   0.6225 0.3108 0.0000  plane waves:    7160
 k-point 75 :   0.6114 0.3053 0.0000  plane waves:    7164
 k-point 76 :   0.6003 0.2997 0.0000  plane waves:    7156
 k-point 77 :   0.5892 0.2942 0.0000  plane waves:    7166
 k-point 78 :   0.5781 0.2886 0.0000  plane waves:    7170
 k-point 79 :   0.5669 0.2831 0.0000  plane waves:    7180
 k-point 80 :   0.5558 0.2775 0.0000  plane waves:    7178
 k-point 81 :   0.5447 0.2720 0.0000  plane waves:    7192
 k-point 82 :   0.5336 0.2664 0.0000  plane waves:    7192
 k-point 83 :   0.5225 0.2609 0.0000  plane waves:    7198
 k-point 84 :   0.5114 0.2553 0.0000  plane waves:    7198
 k-point 85 :   0.5002 0.2497 0.0000  plane waves:    7206
 k-point 86 :   0.4891 0.2442 0.0000  plane waves:    7204
 k-point 87 :   0.4780 0.2387 0.0000  plane waves:    7202
 k-point 88 :   0.4669 0.2331 0.0000  plane waves:    7208
 k-point 89 :   0.4558 0.2276 0.0000  plane waves:    7182
 k-point 90 :   0.4447 0.2220 0.0000  plane waves:    7178
 k-point 91 :   0.4335 0.2165 0.0000  plane waves:    7178
 k-point 92 :   0.4224 0.2109 0.0000  plane waves:    7186
 k-point 93 :   0.4113 0.2054 0.0000  plane waves:    7186
 k-point 94 :   0.4002 0.1998 0.0000  plane waves:    7194
 k-point 95 :   0.3891 0.1943 0.0000  plane waves:    7174
 k-point 96 :   0.3780 0.1887 0.0000  plane waves:    7162
 k-point 97 :   0.3669 0.1832 0.0000  plane waves:    7151
 k-point 98 :   0.3557 0.1776 0.0000  plane waves:    7164
 k-point 99 :   0.3446 0.1721 0.0000  plane waves:    7160
 k-point ** :   0.3335 0.1665 0.0000  plane waves:    7158
 k-point ** :   0.3224 0.1610 0.0000  plane waves:    7172
 k-point ** :   0.3113 0.1554 0.0000  plane waves:    7160
 k-point ** :   0.3001 0.1499 0.0000  plane waves:    7150
 k-point ** :   0.2890 0.1443 0.0000  plane waves:    7142
 k-point ** :   0.2779 0.1388 0.0000  plane waves:    7148
 k-point ** :   0.2668 0.1332 0.0000  plane waves:    7148
 k-point ** :   0.2557 0.1277 0.0000  plane waves:    7166
 k-point ** :   0.2446 0.1221 0.0000  plane waves:    7156
 k-point ** :   0.2334 0.1166 0.0000  plane waves:    7146
 k-point ** :   0.2223 0.1110 0.0000  plane waves:    7152
 k-point ** :   0.2112 0.1055 0.0000  plane waves:    7150
 k-point ** :   0.2001 0.0999 0.0000  plane waves:    7154
 k-point ** :   0.1890 0.0944 0.0000  plane waves:    7146
 k-point ** :   0.1779 0.0888 0.0000  plane waves:    7148
 k-point ** :   0.1668 0.0833 0.0000  plane waves:    7125
 k-point ** :   0.1556 0.0777 0.0000  plane waves:    7125
 k-point ** :   0.1445 0.0722 0.0000  plane waves:    7123
 k-point ** :   0.1334 0.0666 0.0000  plane waves:    7119
 k-point ** :   0.1223 0.0611 0.0000  plane waves:    7135
 k-point ** :   0.1112 0.0555 0.0000  plane waves:    7133
 k-point ** :   0.1001 0.0500 0.0000  plane waves:    7115
 k-point ** :   0.0889 0.0444 0.0000  plane waves:    7123
 k-point ** :   0.0778 0.0389 0.0000  plane waves:    7121
 k-point ** :   0.0667 0.0333 0.0000  plane waves:    7123
 k-point ** :   0.0556 0.0278 0.0000  plane waves:    7133
 k-point ** :   0.0445 0.0222 0.0000  plane waves:    7141
 k-point ** :   0.0333 0.0167 0.0000  plane waves:    7139
 k-point ** :   0.0222 0.0111 0.0000  plane waves:    7135
 k-point ** :   0.0111 0.0056 0.0000  plane waves:    7143
 k-point ** :   0.0000 0.0000 0.0000  plane waves:    7143

 maximum and minimum number of plane-waves per node :      1812     1772

 maximum number of plane-waves:      7220
 maximum index in each direction: 
   IXMAX=    5   IYMAX=    5   IZMAX=   58
   IXMIN=   -6   IYMIN=   -6   IZMIN=  -58

 WARNING: aliasing errors must be expected set NGX to  24 to avoid them
 WARNING: aliasing errors must be expected set NGY to  24 to avoid them
 WARNING: aliasing errors must be expected set NGZ to 234 to avoid them
 aliasing errors are usually negligible using standard VASP settings
 and one can safely disregard these warnings

 parallel 3D FFT for wavefunctions:
    minimum data exchange during FFTs selected (reduces bandwidth)
 parallel 3D FFT for charge:
    minimum data exchange during FFTs selected (reduces bandwidth)


 total amount of memory used by VASP on root node   165767. kBytes
========================================================================

   base      :      30000. kBytes
   nonl-proj :      67928. kBytes
   fftplans  :       2630. kBytes
   grid      :       4292. kBytes
   one-center:         15. kBytes
   wavefun   :      60902. kBytes
 
     INWAV:  cpu time    0.0000: real time    0.0001
 initial charge density was supplied:
 number of electron      18.0000011 magnetization 
 keeping initial charge density in first step


--------------------------------------------------------------------------------------------------------


 Maximum index for augmentation-charges         1476 (set IRDMAX)


--------------------------------------------------------------------------------------------------------


 First call to EWALD:  gamma=   0.270
 Maximum number of real-space cells 6x 6x 1
 Maximum number of reciprocal cells 2x 2x11

 FEWALD executed in parallel
    FEWALD:  cpu time    0.0120: real time    0.0115


----------------------------------------- Iteration    1(   1)  ---------------------------------------


vdW kernel read from vdw_kernel.bindat
  0.0000  0.2424  0.5071  0.7962  1.1119  1.4567  1.8333  2.2446  2.6937  3.1842
  3.7199  4.3049  4.9438  5.6415  6.4036  7.2358  8.1446  9.1372 10.2212 11.4050
 12.6979 14.1099 15.6519 17.3360 19.1751 21.1837 23.3773 25.7729 28.3892 31.2465
 34.3669 37.7748 41.4965 45.5611 50.0000
 
    POTLOK:  cpu time    4.8943: real time    6.5095
    SETDIJ:  cpu time    0.0030: real time    0.0037
     EDDAV:  cpu time   31.1353: real time   37.2728
       DOS:  cpu time    0.0110: real time    0.0107
    --------------------------------------------
      LOOP:  cpu time   36.0625: real time   43.8327

 eigenvalue-minimisations  :  8352
 total energy-change (2. order) : 0.1108684E+03  (-0.4707314E+03)
 number of electron      18.0000011 magnetization 
 augmentation part       18.0000011 magnetization 

 Free energy of the ion-electron system (eV)
  ---------------------------------------------------
  alpha Z        PSCENC =        10.94764219
  Ewald energy   TEWEN  =      5632.60572628
  -Hartree energ DENC   =     -6305.89388909
  -exchange      EXHF   =         0.00000000
  -V(xc)+E(xc)   XCENC  =       -22.18687270
  PAW double counting   =      2032.15005401    -1965.92886363
  entropy T*S    EENTRO =        -0.01468521
  eigenvalues    EBANDS =       -32.82772717
  atomic energy  EATOM  =       762.01703760
  Solvation  Ediel_sol  =         0.00000000
  ---------------------------------------------------
  free energy    TOTEN  =       110.86842227 eV

  energy without entropy =      110.88310749  energy(sigma->0) =      110.87576488


--------------------------------------------------------------------------------------------------------




----------------------------------------- Iteration    1(   2)  ---------------------------------------


     EDDAV:  cpu time   36.1375: real time   48.0299
       DOS:  cpu time    0.0050: real time    0.0124
    --------------------------------------------
      LOOP:  cpu time   36.1535: real time   48.0760

 eigenvalue-minimisations  : 11552
 total energy-change (2. order) :-0.1143992E+03  (-0.9480262E+02)
 number of electron      18.0000011 magnetization 
 augmentation part       18.0000011 magnetization 

 Free energy of the ion-electron system (eV)
  ---------------------------------------------------
  alpha Z        PSCENC =        10.94764219
  Ewald energy   TEWEN  =      5632.60572628
  -Hartree energ DENC   =     -6305.89388909
  -exchange      EXHF   =         0.00000000
  -V(xc)+E(xc)   XCENC  =       -22.18687270
  PAW double counting   =      2032.15005401    -1965.92886363
  entropy T*S    EENTRO =        -0.00000000
  eigenvalues    EBANDS =      -147.24162785
  atomic energy  EATOM  =       762.01703760
  Solvation  Ediel_sol  =         0.00000000
  ---------------------------------------------------
  free energy    TOTEN  =        -3.53079320 eV

  energy without entropy =       -3.53079320  energy(sigma->0) =       -3.53079320


--------------------------------------------------------------------------------------------------------




----------------------------------------- Iteration    1(   3)  ---------------------------------------


     EDDAV:  cpu time   36.8134: real time   46.5537
       DOS:  cpu time    0.0050: real time    0.0068
    --------------------------------------------
      LOOP:  cpu time   36.8214: real time   46.5675

 eigenvalue-minimisations  : 11040
 total energy-change (2. order) :-0.1411828E+02  (-0.1390069E+02)
 number of electron      18.0000011 magnetization 
 augmentation part       18.0000011 magnetization 

 Free energy of the ion-electron system (eV)
  ---------------------------------------------------
  alpha Z        PSCENC =        10.94764219
  Ewald energy   TEWEN  =      5632.60572628
  -Hartree energ DENC   =     -6305.89388909
  -exchange      EXHF   =         0.00000000
  -V(xc)+E(xc)   XCENC  =       -22.18687270
  PAW double counting   =      2032.15005401    -1965.92886363
  entropy T*S    EENTRO =        -0.00000000
  eigenvalues    EBANDS =      -161.35991087
  atomic energy  EATOM  =       762.01703760
  Solvation  Ediel_sol  =         0.00000000
  ---------------------------------------------------
  free energy    TOTEN  =       -17.64907622 eV

  energy without entropy =      -17.64907622  energy(sigma->0) =      -17.64907622


--------------------------------------------------------------------------------------------------------




----------------------------------------- Iteration    1(   4)  ---------------------------------------


     EDDAV:  cpu time   33.5529: real time   44.1144
       DOS:  cpu time    0.0050: real time    0.0049
    --------------------------------------------
      LOOP:  cpu time   33.5619: real time   44.1516

 eigenvalue-minimisations  : 10400
 total energy-change (2. order) :-0.2366160E+00  (-0.2364451E+00)
 number of electron      18.0000011 magnetization 
 augmentation part       18.0000011 magnetization 

 Free energy of the ion-electron system (eV)
  ---------------------------------------------------
  alpha Z        PSCENC =        10.94764219
  Ewald energy   TEWEN  =      5632.60572628
  -Hartree energ DENC   =     -6305.89388909
  -exchange      EXHF   =         0.00000000
  -V(xc)+E(xc)   XCENC  =       -22.18687270
  PAW double counting   =      2032.15005401    -1965.92886363
  entropy T*S    EENTRO =        -0.00000000
  eigenvalues    EBANDS =      -161.59652684
  atomic energy  EATOM  =       762.01703760
  Solvation  Ediel_sol  =         0.00000000
  ---------------------------------------------------
  free energy    TOTEN  =       -17.88569219 eV

  energy without entropy =      -17.88569219  energy(sigma->0) =      -17.88569219


--------------------------------------------------------------------------------------------------------




----------------------------------------- Iteration    1(   5)  ---------------------------------------


     EDDAV:  cpu time   39.5380: real time   47.4114
       DOS:  cpu time    0.0050: real time    0.0050
    --------------------------------------------
      LOOP:  cpu time   39.5440: real time   47.4315

 eigenvalue-minimisations  : 11464
 total energy-change (2. order) :-0.4828314E-02  (-0.4828123E-02)
 number of electron      18.0000011 magnetization 
 augmentation part       18.0000011 magnetization 

 Free energy of the ion-electron system (eV)
  ---------------------------------------------------
  alpha Z        PSCENC =        10.94764219
  Ewald energy   TEWEN  =      5632.60572628
  -Hartree energ DENC   =     -6305.89388909
  -exchange      EXHF   =         0.00000000
  -V(xc)+E(xc)   XCENC  =       -22.18687270
  PAW double counting   =      2032.15005401    -1965.92886363
  entropy T*S    EENTRO =        -0.00000000
  eigenvalues    EBANDS =      -161.60135516
  atomic energy  EATOM  =       762.01703760
  Solvation  Ediel_sol  =         0.00000000
  ---------------------------------------------------
  free energy    TOTEN  =       -17.89052050 eV

  energy without entropy =      -17.89052050  energy(sigma->0) =      -17.89052050


--------------------------------------------------------------------------------------------------------




----------------------------------------- Iteration    1(   6)  ---------------------------------------


     EDDAV:  cpu time   37.8582: real time   45.7539
       DOS:  cpu time    0.0050: real time    0.0049
    --------------------------------------------
      LOOP:  cpu time   37.8732: real time   45.7737

 eigenvalue-minimisations  : 10880
 total energy-change (2. order) :-0.1347924E-03  (-0.1347916E-03)
 number of electron      18.0000011 magnetization 
 augmentation part       18.0000011 magnetization 

 Free energy of the ion-electron system (eV)
  ---------------------------------------------------
  alpha Z        PSCENC =        10.94764219
  Ewald energy   TEWEN  =      5632.60572628
  -Hartree energ DENC   =     -6305.89388909
  -exchange      EXHF   =         0.00000000
  -V(xc)+E(xc)   XCENC  =       -22.18687270
  PAW double counting   =      2032.15005401    -1965.92886363
  entropy T*S    EENTRO =        -0.00000000
  eigenvalues    EBANDS =      -161.60148995
  atomic energy  EATOM  =       762.01703760
  Solvation  Ediel_sol  =         0.00000000
  ---------------------------------------------------
  free energy    TOTEN  =       -17.89065530 eV

  energy without entropy =      -17.89065530  energy(sigma->0) =      -17.89065530


--------------------------------------------------------------------------------------------------------




----------------------------------------- Iteration    1(   7)  ---------------------------------------


     EDDAV:  cpu time   40.2149: real time   48.4047
       DOS:  cpu time    0.0150: real time    0.0149
    --------------------------------------------
      LOOP:  cpu time   40.2319: real time   48.4322

 eigenvalue-minimisations  : 11736
 total energy-change (2. order) :-0.4578696E-05  (-0.4578699E-05)
 number of electron      18.0000011 magnetization 
 augmentation part       18.0000011 magnetization 

 Free energy of the ion-electron system (eV)
  ---------------------------------------------------
  alpha Z        PSCENC =        10.94764219
  Ewald energy   TEWEN  =      5632.60572628
  -Hartree energ DENC   =     -6305.89388909
  -exchange      EXHF   =         0.00000000
  -V(xc)+E(xc)   XCENC  =       -22.18687270
  PAW double counting   =      2032.15005401    -1965.92886363
  entropy T*S    EENTRO =        -0.00000000
  eigenvalues    EBANDS =      -161.60149453
  atomic energy  EATOM  =       762.01703760
  Solvation  Ediel_sol  =         0.00000000
  ---------------------------------------------------
  free energy    TOTEN  =       -17.89065988 eV

  energy without entropy =      -17.89065988  energy(sigma->0) =      -17.89065988


--------------------------------------------------------------------------------------------------------




----------------------------------------- Iteration    1(   8)  ---------------------------------------


     EDDAV:  cpu time   33.4889: real time   41.4502
       DOS:  cpu time    0.0050: real time    0.0049
    --------------------------------------------
      LOOP:  cpu time   33.4949: real time   41.4777

 eigenvalue-minimisations  :  9600
 total energy-change (2. order) :-0.2098468E-06  (-0.2098304E-06)
 number of electron      18.0000011 magnetization 
 augmentation part       18.0000011 magnetization 

 Free energy of the ion-electron system (eV)
  ---------------------------------------------------
  alpha Z        PSCENC =        10.94764219
  Ewald energy   TEWEN  =      5632.60572628
  -Hartree energ DENC   =     -6305.89388909
  -exchange      EXHF   =         0.00000000
  -V(xc)+E(xc)   XCENC  =       -22.18687270
  PAW double counting   =      2032.15005401    -1965.92886363
  entropy T*S    EENTRO =        -0.00000000
  eigenvalues    EBANDS =      -161.60149474
  atomic energy  EATOM  =       762.01703760
  Solvation  Ediel_sol  =         0.00000000
  ---------------------------------------------------
  free energy    TOTEN  =       -17.89066009 eV

  energy without entropy =      -17.89066009  energy(sigma->0) =      -17.89066009


--------------------------------------------------------------------------------------------------------




 average (electrostatic) potential at core
  the test charge radii are     1.1823  0.9698
  (the norm of the test charge is              1.0000)
       1 -49.4048       2 -95.0671       3 -95.0671
 
 
 
 E-fermi :  -3.2199     XC(G=0):  -2.7537     alpha+bet : -2.2697


 k-point     1 :       0.0000    0.0000    0.0000
  band No.  band energies     occupation 
      1     -18.3247      2.00000
      2     -16.7830      2.00000
      3      -9.9416      2.00000
      4      -6.5244      2.00000
      5      -6.5244      2.00000
      6      -5.7715      2.00000
      7      -5.3002      2.00000
      8      -5.3002      2.00000
      9      -3.7609      2.00000
     10      -0.8329      0.00000
     11      -0.8328      0.00000
     12      -0.7068      0.00000
     13      -0.7067      0.00000
     14       0.9626      0.00000
     15       1.1811      0.00000
     16       1.7729      0.00000
     17       2.0206      0.00000
     18       2.0745      0.00000
     19       2.5983      0.00000
     20       3.1095      0.00000
     21       3.6523      0.00000
     22       4.4048      0.00000
     23       5.0505      0.00000
     24       5.0780      0.00000
     25       6.0335      0.00000
     26       6.7725      0.00000
     27       6.9744      0.00000
     28       6.9744      0.00000
     29       8.0646      0.00000
     30       8.4320      0.00000
     31       9.2690      0.00000
     32       9.2737      0.00000

 k-point     2 :       0.0125    0.0000    0.0000
  band No.  band energies     occupation 
      1     -18.3222      2.00000
      2     -16.7820      2.00000
      3      -9.9385      2.00000
      4      -6.5313      2.00000
      5      -6.5219      2.00000
      6      -5.7856      2.00000
      7      -5.3044      2.00000
      8      -5.2903      2.00000
      9      -3.7620      2.00000
     10      -0.8361      0.00000
     11      -0.8279      0.00000
     12      -0.7146      0.00000
     13      -0.7092      0.00000
     14       0.9693      0.00000
     15       1.1843      0.00000
     16       1.7806      0.00000
     17       2.0259      0.00000
     18       2.0775      0.00000
     19       2.6018      0.00000
     20       3.1126      0.00000
     21       3.6556      0.00000
     22       4.4077      0.00000
     23       5.0622      0.00000
     24       5.0811      0.00000
     25       6.0363      0.00000
     26       6.7653      0.00000
     27       6.9711      0.00000
     28       6.9819      0.00000
     29       8.0670      0.00000
     30       8.4417      0.00000
     31       9.2470      0.00000
     32       9.2781      0.00000

 k-point     3 :       0.0250    0.0000    0.0000
  band No.  band energies     occupation 
      1     -18.3149      2.00000
      2     -16.7789      2.00000
      3      -9.9293      2.00000
      4      -6.5521      2.00000
      5      -6.5143      2.00000
      6      -5.8245      2.00000
      7      -5.3170      2.00000
      8      -5.2639      2.00000
      9      -3.7652      2.00000
     10      -0.8455      0.00000
     11      -0.8131      0.00000
     12      -0.7377      0.00000
     13      -0.7164      0.00000
     14       0.9888      0.00000
     15       1.1938      0.00000
     16       1.8032      0.00000
     17       2.0420      0.00000
     18       2.0867      0.00000
     19       2.6124      0.00000
     20       3.1217      0.00000
     21       3.6656      0.00000
     22       4.4166      0.00000
     23       5.0902      0.00000
     24       5.0971      0.00000
     25       6.0447      0.00000
     26       6.7412      0.00000
     27       6.9651      0.00000
     28       7.0041      0.00000
     29       8.0741      0.00000
     30       8.4696      0.00000
     31       9.1785      0.00000
     32       9.2732      0.00000

 k-point     4 :       0.0375    0.0000    0.0000
  band No.  band energies     occupation 
      1     -18.3026      2.00000
      2     -16.7739      2.00000
      3      -9.9140      2.00000
      4      -6.5862      2.00000
      5      -6.5018      2.00000
      6      -5.8814      2.00000
      7      -5.3377      2.00000
      8      -5.2280      2.00000
      9      -3.7708      2.00000
     10      -0.8602      0.00000
     11      -0.7888      0.00000
     12      -0.7744      0.00000
     13      -0.7283      0.00000
     14       1.0195      0.00000
     15       1.2097      0.00000
     16       1.8392      0.00000
     17       2.0705      0.00000
     18       2.1021      0.00000
     19       2.6300      0.00000
     20       3.1369      0.00000
     21       3.6822      0.00000
     22       4.4313      0.00000
     23       5.1052      0.00000
     24       5.1543      0.00000
     25       6.0588      0.00000
     26       6.6958      0.00000
     27       6.9643      0.00000
     28       7.0409      0.00000
     29       8.0855      0.00000
     30       8.5122      0.00000
     31       9.0689      0.00000
     32       9.2835      0.00000

 k-point     5 :       0.0500    0.0000    0.0000
  band No.  band energies     occupation 
      1     -18.2854      2.00000
      2     -16.7668      2.00000
      3      -9.8927      2.00000
      4      -6.6330      2.00000
      5      -6.4843      2.00000
      6      -5.9504      2.00000
      7      -5.3662      2.00000
      8      -5.1889      2.00000
      9      -3.7791      2.00000
     10      -0.8790      0.00000
     11      -0.8226      0.00000
     12      -0.7554      0.00000
     13      -0.7445      0.00000
     14       1.0595      0.00000
     15       1.2319      0.00000
     16       1.8852      0.00000
     17       2.1140      0.00000
     18       2.1236      0.00000
     19       2.6551      0.00000
     20       3.1581      0.00000
     21       3.7055      0.00000
     22       4.4519      0.00000
     23       5.1261      0.00000
     24       5.2323      0.00000
     25       6.0783      0.00000
     26       6.6292      0.00000
     27       6.9734      0.00000
     28       7.0920      0.00000
     29       8.1004      0.00000
     30       8.5652      0.00000
     31       8.9350      0.00000
     32       9.2783      0.00000

 k-point     6 :       0.0625    0.0000    0.0000
  band No.  band energies     occupation 
      1     -18.2635      2.00000
      2     -16.7578      2.00000
      3      -9.8654      2.00000
      4      -6.6917      2.00000
      5      -6.4620      2.00000
      6      -6.0274      2.00000
      7      -5.4018      2.00000
      8      -5.1508      2.00000
      9      -3.7903      2.00000
     10      -0.9000      0.00000
     11      -0.8796      0.00000
     12      -0.7649      0.00000
     13      -0.7136      0.00000
     14       1.1066      0.00000
     15       1.2602      0.00000
     16       1.9373      0.00000
     17       2.1511      0.00000
     18       2.1755      0.00000
     19       2.6878      0.00000
     20       3.1853      0.00000
     21       3.7354      0.00000
     22       4.4783      0.00000
     23       5.1527      0.00000
     24       5.3290      0.00000
     25       6.1034      0.00000
     26       6.5459      0.00000
     27       6.9923      0.00000
     28       7.1569      0.00000
     29       8.1168      0.00000
     30       8.6243      0.00000
     31       8.7848      0.00000
     32       9.2932      0.00000

 k-point     7 :       0.0750    0.0000    0.0000
  band No.  band energies     occupation 
      1     -18.2368      2.00000
      2     -16.7469      2.00000
      3      -9.8325      2.00000
      4      -6.7612      2.00000
      5      -6.4349      2.00000
      6      -6.1102      2.00000
      7      -5.4440      2.00000
      8      -5.1164      2.00000
      9      -3.8050      2.00000
     10      -0.9430      0.00000
     11      -0.9215      0.00000
     12      -0.7889      0.00000
     13      -0.6642      0.00000
     14       1.1591      0.00000
     15       1.2946      0.00000
     16       1.9917      0.00000
     17       2.1848      0.00000
     18       2.2566      0.00000
     19       2.7291      0.00000
     20       3.2185      0.00000
     21       3.7720      0.00000
     22       4.5105      0.00000
     23       5.1847      0.00000
     24       5.4419      0.00000
     25       6.1337      0.00000
     26       6.4515      0.00000
     27       7.0197      0.00000
     28       7.2353      0.00000
     29       8.1297      0.00000
     30       8.6313      0.00000
     31       8.6857      0.00000
     32       9.2725      0.00000

 k-point     8 :       0.0875    0.0000    0.0000
  band No.  band energies     occupation 
      1     -18.2055      2.00000
      2     -16.7341      2.00000
      3      -9.7941      2.00000
      4      -6.8403      2.00000
      5      -6.4033      2.00000
      6      -6.1971      2.00000
      7      -5.4920      2.00000
      8      -5.0875      2.00000
      9      -3.8238      2.00000
     10      -1.0101      0.00000
     11      -0.9414      0.00000
     12      -0.8160      0.00000
     13      -0.6080      0.00000
     14       1.2158      0.00000
     15       1.3350      0.00000
     16       2.0471      0.00000
     17       2.2246      0.00000
     18       2.3557      0.00000
     19       2.7801      0.00000
     20       3.2577      0.00000
     21       3.8153      0.00000
     22       4.5483      0.00000
     23       5.2217      0.00000
     24       5.5678      0.00000
     25       6.1693      0.00000
     26       6.3509      0.00000
     27       7.0541      0.00000
     28       7.3263      0.00000
     29       8.1253      0.00000
     30       8.4950      0.00000
     31       8.7461      0.00000
     32       9.2862      0.00000

 k-point     9 :       0.1000    0.0000    0.0000
  band No.  band energies     occupation 
      1     -18.1696      2.00000
      2     -16.7194      2.00000
      3      -9.7503      2.00000
      4      -6.9279      2.00000
      5      -6.3673      2.00000
      6      -6.2872      2.00000
      7      -5.5452      2.00000
      8      -5.0654      2.00000
      9      -3.8473      2.00000
     10      -1.0784      0.00000
     11      -0.9579      0.00000
     12      -0.8459      0.00000
     13      -0.5460      0.00000
     14       1.2760      0.00000
     15       1.3814      0.00000
     16       2.1039      0.00000
     17       2.2704      0.00000
     18       2.4677      0.00000
     19       2.8429      0.00000
     20       3.3028      0.00000
     21       3.8654      0.00000
     22       4.5917      0.00000
     23       5.2634      0.00000
     24       5.7025      0.00000
     25       6.2100      0.00000
     26       6.2480      0.00000
     27       7.0946      0.00000
     28       7.4293      0.00000
     29       8.0734      0.00000
     30       8.4122      0.00000
     31       8.8024      0.00000
     32       9.3187      0.00000

 k-point    10 :       0.1125    0.0000    0.0000
  band No.  band energies     occupation 
      1     -18.1293      2.00000
      2     -16.7029      2.00000
      3      -9.7017      2.00000
      4      -7.0227      2.00000
      5      -6.3798      2.00000
      6      -6.3271      2.00000
      7      -5.6027      2.00000
      8      -5.0508      2.00000
      9      -3.8760      2.00000
     10      -1.1457      0.00000
     11      -0.9693      0.00000
     12      -0.8778      0.00000
     13      -0.4790      0.00000
     14       1.3392      0.00000
     15       1.4336      0.00000
     16       2.1634      0.00000
     17       2.3222      0.00000
     18       2.5850      0.00000
     19       2.9210      0.00000
     20       3.3538      0.00000
     21       3.9226      0.00000
     22       4.6405      0.00000
     23       5.3091      0.00000
     24       5.8405      0.00000
     25       6.1461      0.00000
     26       6.2561      0.00000
     27       7.1405      0.00000
     28       7.5433      0.00000
     29       7.9646      0.00000
     30       8.3984      0.00000
     31       8.8509      0.00000
     32       9.3054      0.00000

 k-point    11 :       0.1250    0.0000    0.0000
  band No.  band energies     occupation 
      1     -18.0847      2.00000
      2     -16.6847      2.00000
      3      -9.6484      2.00000
      4      -7.1234      2.00000
      5      -6.4745      2.00000
      6      -6.2829      2.00000
      7      -5.6639      2.00000
      8      -5.0442      2.00000
      9      -3.9105      2.00000
     10      -1.2100      0.00000
     11      -0.9741      0.00000
     12      -0.9113      0.00000
     13      -0.4081      0.00000
     14       1.4055      0.00000
     15       1.4915      0.00000
     16       2.2267      0.00000
     17       2.3801      0.00000
     18       2.6993      0.00000
     19       3.0181      0.00000
     20       3.4106      0.00000
     21       3.9872      0.00000
     22       4.6947      0.00000
     23       5.3577      0.00000
     24       5.9733      0.00000
     25       6.0487      0.00000
     26       6.3086      0.00000
     27       7.1911      0.00000
     28       7.6675      0.00000
     29       7.8356      0.00000
     30       8.4242      0.00000
     31       8.8864      0.00000
     32       9.3201      0.00000

 k-point    12 :       0.1375    0.0000    0.0000
  band No.  band energies     occupation 
      1     -18.0359      2.00000
      2     -16.6648      2.00000
      3      -9.5911      2.00000
      4      -7.2288      2.00000
      5      -6.5709      2.00000
      6      -6.2350      2.00000
      7      -5.7280      2.00000
      8      -5.0456      2.00000
      9      -3.9512      2.00000
     10      -1.2694      0.00000
     11      -0.9712      0.00000
     12      -0.9457      0.00000
     13      -0.3342      0.00000
     14       1.4748      0.00000
     15       1.5551      0.00000
     16       2.2943      0.00000
     17       2.4439      0.00000
     18       2.8052      0.00000
     19       3.1348      0.00000
     20       3.4732      0.00000
     21       4.0596      0.00000
     22       4.7540      0.00000
     23       5.4072      0.00000
     24       5.9601      0.00000
     25       6.0876      0.00000
     26       6.3708      0.00000
     27       7.2460      0.00000
     28       7.7173      0.00000
     29       7.8005      0.00000
     30       8.4679      0.00000
     31       8.9042      0.00000
     32       9.3598      0.00000

 k-point    13 :       0.1500    0.0000    0.0000
  band No.  band energies     occupation 
      1     -17.9832      2.00000
      2     -16.6433      2.00000
      3      -9.5303      2.00000
      4      -7.3375      2.00000
      5      -6.6688      2.00000
      6      -6.1837      2.00000
      7      -5.7944      2.00000
      8      -5.0547      2.00000
      9      -3.9985      2.00000
     10      -1.3222      0.00000
     11      -0.9803      0.00000
     12      -0.9599      0.00000
     13      -0.2582      0.00000
     14       1.5473      0.00000
     15       1.6243      0.00000
     16       2.3668      0.00000
     17       2.5138      0.00000
     18       2.9024      0.00000
     19       3.2663      0.00000
     20       3.5415      0.00000
     21       4.1401      0.00000
     22       4.8180      0.00000
     23       5.4537      0.00000
     24       5.8867      0.00000
     25       6.1658      0.00000
     26       6.4467      0.00000
     27       7.3045      0.00000
     28       7.6300      0.00000
     29       7.9411      0.00000
     30       8.5214      0.00000
     31       8.8999      0.00000
     32       9.3672      0.00000

 k-point    14 :       0.1625    0.0000    0.0000
  band No.  band energies     occupation 
      1     -17.9267      2.00000
      2     -16.6203      2.00000
      3      -9.4669      2.00000
      4      -7.4482      2.00000
      5      -6.7679      2.00000
      6      -6.1293      2.00000
      7      -5.8624      2.00000
      8      -5.0712      2.00000
      9      -4.0523      2.00000
     10      -1.3674      0.00000
     11      -1.0148      0.00000
     12      -0.9398      0.00000
     13      -0.1809      0.00000
     14       1.6229      0.00000
     15       1.6989      0.00000
     16       2.4444      0.00000
     17       2.5895      0.00000
     18       2.9947      0.00000
     19       3.4033      0.00000
     20       3.6154      0.00000
     21       4.2289      0.00000
     22       4.8863      0.00000
     23       5.4895      0.00000
     24       5.8390      0.00000
     25       6.1959      0.00000
     26       6.5340      0.00000
     27       7.3661      0.00000
     28       7.5895      0.00000
     29       8.0875      0.00000
     30       8.5812      0.00000
     31       8.8737      0.00000
     32       9.4272      0.00000

 k-point    15 :       0.1750    0.0000    0.0000
  band No.  band energies     occupation 
      1     -17.8666      2.00000
      2     -16.5960      2.00000
      3      -9.4016      2.00000
      4      -7.5596      2.00000
      5      -6.8681      2.00000
      6      -6.0721      2.00000
      7      -5.9315      2.00000
      8      -5.0942      2.00000
      9      -4.1123      2.00000
     10      -1.4039      0.00000
     11      -1.0483      0.00000
     12      -0.9110      0.00000
     13      -0.1031      0.00000
     14       1.7017      0.00000
     15       1.7788      0.00000
     16       2.5273      0.00000
     17       2.6712      0.00000
     18       3.0853      0.00000
     19       3.5368      0.00000
     20       3.6947      0.00000
     21       4.3249      0.00000
     22       4.9583      0.00000
     23       5.5046      0.00000
     24       5.8305      0.00000
     25       6.1786      0.00000
     26       6.6237      0.00000
     27       7.4302      0.00000
     28       7.6035      0.00000
     29       8.2376      0.00000
     30       8.6454      0.00000
     31       8.8304      0.00000
     32       9.4539      0.00000

 k-point    16 :       0.1875    0.0000    0.0000
  band No.  band energies     occupation 
      1     -17.8032      2.00000
      2     -16.5703      2.00000
      3      -9.3359      2.00000
      4      -7.6701      2.00000
      5      -6.9691      2.00000
      6      -6.0126      2.00000
      7      -6.0011      2.00000
      8      -5.1230      2.00000
      9      -4.1779      2.00000
     10      -1.4311      0.00000
     11      -1.0804      0.00000
     12      -0.8738      0.00000
     13      -0.0257      0.00000
     14       1.7838      0.00000
     15       1.8638      0.00000
     16       2.6156      0.00000
     17       2.7587      0.00000
     18       3.1764      0.00000
     19       3.6591      0.00000
     20       3.7794      0.00000
     21       4.4254      0.00000
     22       5.0326      0.00000
     23       5.5004      0.00000
     24       5.8648      0.00000
     25       6.1222      0.00000
     26       6.7115      0.00000
     27       7.4963      0.00000
     28       7.6660      0.00000
     29       8.3885      0.00000
     30       8.7132      0.00000
     31       8.7765      0.00000
     32       9.4925      0.00000

 k-point    17 :       0.2000    0.0000    0.0000
  band No.  band energies     occupation 
      1     -17.7367      2.00000
      2     -16.5435      2.00000
      3      -9.2712      2.00000
      4      -7.7779      2.00000
      5      -7.0707      2.00000
      6      -6.0707      2.00000
      7      -5.9511      2.00000
      8      -5.1566      2.00000
      9      -4.2481      2.00000
     10      -1.4490      0.00000
     11      -1.1106      0.00000
     12      -0.8286      0.00000
     13       0.0508      0.00000
     14       1.8690      0.00000
     15       1.9539      0.00000
     16       2.7092      0.00000
     17       2.8520      0.00000
     18       3.2690      0.00000
     19       3.7647      0.00000
     20       3.8692      0.00000
     21       4.5255      0.00000
     22       5.1071      0.00000
     23       5.4930      0.00000
     24       5.9312      0.00000
     25       6.0404      0.00000
     26       6.7982      0.00000
     27       7.5641      0.00000
     28       7.7602      0.00000
     29       8.5363      0.00000
     30       8.7190      0.00000
     31       8.7841      0.00000
     32       9.5348      0.00000

 k-point    18 :       0.2125    0.0000    0.0000
  band No.  band energies     occupation 
      1     -17.6673      2.00000
      2     -16.5156      2.00000
      3      -9.2099      2.00000
      4      -7.8810      2.00000
      5      -7.1726      2.00000
      6      -6.1399      2.00000
      7      -5.8881      2.00000
      8      -5.1939      2.00000
      9      -4.3218      2.00000
     10      -1.4575      0.00000
     11      -1.1383      0.00000
     12      -0.7763      0.00000
     13       0.1257      0.00000
     14       1.9572      0.00000
     15       2.0488      0.00000
     16       2.8082      0.00000
     17       2.9511      0.00000
     18       3.3631      0.00000
     19       3.8500      0.00000
     20       3.9637      0.00000
     21       4.6190      0.00000
     22       5.1778      0.00000
     23       5.4980      0.00000
     24       5.9493      0.00000
     25       6.0196      0.00000
     26       6.8856      0.00000
     27       7.6336      0.00000
     28       7.8662      0.00000
     29       8.6637      0.00000
     30       8.6757      0.00000
     31       8.8592      0.00000
     32       9.5659      0.00000

 k-point    19 :       0.2250    0.0000    0.0000
  band No.  band energies     occupation 
      1     -17.5954      2.00000
      2     -16.4867      2.00000
      3      -9.1547      2.00000
      4      -7.9766      2.00000
      5      -7.2748      2.00000
      6      -6.2084      2.00000
      7      -5.8240      2.00000
[...]
     19       2.7366      0.00000
     20       3.2245      0.00000
     21       3.7785      0.00000
     22       4.5162      0.00000
     23       5.1907      0.00000
     24       5.4622      0.00000
     25       6.1390      0.00000
     26       6.4420      0.00000
     27       7.0134      0.00000
     28       7.2507      0.00000
     29       8.1320      0.00000
     30       8.6129      0.00000
     31       8.6983      0.00000
     32       9.2566      0.00000

 k-point   123 :       0.0778    0.0389    0.0000
  band No.  band energies     occupation 
      1     -18.2536      2.00000
      2     -16.7538      2.00000
      3      -9.8532      2.00000
      4      -6.7173      2.00000
      5      -6.4523      2.00000
      6      -6.0575      2.00000
      7      -5.4256      2.00000
      8      -5.1302      2.00000
      9      -3.7956      2.00000
     10      -0.9119      0.00000
     11      -0.9025      0.00000
     12      -0.7755      0.00000
     13      -0.6921      0.00000
     14       1.1268      0.00000
     15       1.2729      0.00000
     16       1.9586      0.00000
     17       2.1636      0.00000
     18       2.2050      0.00000
     19       2.7029      0.00000
     20       3.1976      0.00000
     21       3.7489      0.00000
     22       4.4903      0.00000
     23       5.1647      0.00000
     24       5.3717      0.00000
     25       6.1146      0.00000
     26       6.5142      0.00000
     27       6.9941      0.00000
     28       7.1882      0.00000
     29       8.1231      0.00000
     30       8.6496      0.00000
     31       8.7298      0.00000
     32       9.3471      0.00000

 k-point   124 :       0.0667    0.0333    0.0000
  band No.  band energies     occupation 
      1     -18.2724      2.00000
      2     -16.7615      2.00000
      3      -9.8764      2.00000
      4      -6.6679      2.00000
      5      -6.4712      2.00000
      6      -5.9966      2.00000
      7      -5.3920      2.00000
      8      -5.1612      2.00000
      9      -3.7856      2.00000
     10      -0.8937      0.00000
     11      -0.8563      0.00000
     12      -0.7577      0.00000
     13      -0.7287      0.00000
     14       1.0881      0.00000
     15       1.2487      0.00000
     16       1.9172      0.00000
     17       2.1400      0.00000
     18       2.1499      0.00000
     19       2.6745      0.00000
     20       3.1743      0.00000
     21       3.7233      0.00000
     22       4.4677      0.00000
     23       5.1420      0.00000
     24       5.2904      0.00000
     25       6.0932      0.00000
     26       6.5816      0.00000
     27       6.9789      0.00000
     28       7.1327      0.00000
     29       8.1107      0.00000
     30       8.6020      0.00000
     31       8.8460      0.00000
     32       9.2717      0.00000

 k-point   125 :       0.0556    0.0278    0.0000
  band No.  band energies     occupation 
      1     -18.2883      2.00000
      2     -16.7680      2.00000
      3      -9.8962      2.00000
      4      -6.6252      2.00000
      5      -6.4873      2.00000
      6      -5.9391      2.00000
      7      -5.3637      2.00000
      8      -5.1929      2.00000
      9      -3.7776      2.00000
     10      -0.8769      0.00000
     11      -0.8143      0.00000
     12      -0.7600      0.00000
     13      -0.7423      0.00000
     14       1.0531      0.00000
     15       1.2282      0.00000
     16       1.8779      0.00000
     17       2.1065      0.00000
     18       2.1200      0.00000
     19       2.6508      0.00000
     20       3.1545      0.00000
     21       3.7016      0.00000
     22       4.4485      0.00000
     23       5.1227      0.00000
     24       5.2194      0.00000
     25       6.0751      0.00000
     26       6.6416      0.00000
     27       6.9685      0.00000
     28       7.0848      0.00000
     29       8.0981      0.00000
     30       8.5571      0.00000
     31       8.9581      0.00000
     32       9.2693      0.00000

 k-point   126 :       0.0445    0.0222    0.0000
  band No.  band energies     occupation 
      1     -18.3014      2.00000
      2     -16.7734      2.00000
      3      -9.9125      2.00000
      4      -6.5895      2.00000
      5      -6.5006      2.00000
      6      -5.8865      2.00000
      7      -5.3407      2.00000
      8      -5.2241      2.00000
      9      -3.7714      2.00000
     10      -0.8620      0.00000
     11      -0.7860      0.00000
     12      -0.7777      0.00000
     13      -0.7296      0.00000
     14       1.0225      0.00000
     15       1.2113      0.00000
     16       1.8426      0.00000
     17       2.0734      0.00000
     18       2.1036      0.00000
     19       2.6318      0.00000
     20       3.1383      0.00000
     21       3.6839      0.00000
     22       4.4328      0.00000
     23       5.1067      0.00000
     24       5.1599      0.00000
     25       6.0601      0.00000
     26       6.6917      0.00000
     27       6.9633      0.00000
     28       7.0452      0.00000
     29       8.0866      0.00000
     30       8.5162      0.00000
     31       9.0600      0.00000
     32       9.2849      0.00000

 k-point   127 :       0.0333    0.0167    0.0000
  band No.  band energies     occupation 
      1     -18.3116      2.00000
      2     -16.7776      2.00000
      3      -9.9252      2.00000
      4      -6.5613      2.00000
      5      -6.5110      2.00000
      6      -5.8405      2.00000
      7      -5.3229      2.00000
      8      -5.2532      2.00000
      9      -3.7667      2.00000
     10      -0.8497      0.00000
     11      -0.8064      0.00000
     12      -0.7476      0.00000
     13      -0.7197      0.00000
     14       0.9972      0.00000
     15       1.1981      0.00000
     16       1.8131      0.00000
     17       2.0494      0.00000
     18       2.0909      0.00000
     19       2.6171      0.00000
     20       3.1257      0.00000
     21       3.6701      0.00000
     22       4.4206      0.00000
     23       5.0942      0.00000
     24       5.1126      0.00000
     25       6.0485      0.00000
     26       6.7296      0.00000
     27       6.9635      0.00000
     28       7.0143      0.00000
     29       8.0772      0.00000
     30       8.4815      0.00000
     31       9.1466      0.00000
     32       9.2704      0.00000

 k-point   128 :       0.0222    0.0111    0.0000
  band No.  band energies     occupation 
      1     -18.3189      2.00000
      2     -16.7806      2.00000
      3      -9.9343      2.00000
      4      -6.5409      2.00000
      5      -6.5184      2.00000
      6      -5.8039      2.00000
      7      -5.3103      2.00000
      8      -5.2775      2.00000
      9      -3.7635      2.00000
     10      -0.8405      0.00000
     11      -0.8211      0.00000
     12      -0.7253      0.00000
     13      -0.7125      0.00000
     14       0.9783      0.00000
     15       1.1887      0.00000
     16       1.7911      0.00000
     17       2.0332      0.00000
     18       2.0817      0.00000
     19       2.6066      0.00000
     20       3.1167      0.00000
     21       3.6602      0.00000
     22       4.4118      0.00000
     23       5.0783      0.00000
     24       5.0852      0.00000
     25       6.0401      0.00000
     26       6.7547      0.00000
     27       6.9676      0.00000
     28       6.9921      0.00000
     29       8.0703      0.00000
     30       8.4547      0.00000
     31       9.2138      0.00000
     32       9.2765      0.00000

 k-point   129 :       0.0111    0.0056    0.0000
  band No.  band energies     occupation 
      1     -18.3232      2.00000
      2     -16.7824      2.00000
      3      -9.9397      2.00000
      4      -6.5285      2.00000
      5      -6.5229      2.00000
      6      -5.7799      2.00000
      7      -5.3027      2.00000
      8      -5.2942      2.00000
      9      -3.7616      2.00000
     10      -0.8348      0.00000
     11      -0.8299      0.00000
     12      -0.7114      0.00000
     13      -0.7082      0.00000
     14       0.9666      0.00000
     15       1.1830      0.00000
     16       1.7775      0.00000
     17       2.0237      0.00000
     18       2.0763      0.00000
     19       2.6004      0.00000
     20       3.1113      0.00000
     21       3.6543      0.00000
     22       4.4065      0.00000
     23       5.0575      0.00000
     24       5.0798      0.00000
     25       6.0351      0.00000
     26       6.7683      0.00000
     27       6.9724      0.00000
     28       6.9788      0.00000
     29       8.0660      0.00000
     30       8.4378      0.00000
     31       9.2681      0.00000
     32       9.3136      0.00000

 k-point   130 :       0.0000    0.0000    0.0000
  band No.  band energies     occupation 
      1     -18.3247      2.00000
      2     -16.7830      2.00000
      3      -9.9416      2.00000
      4      -6.5244      2.00000
      5      -6.5244      2.00000
      6      -5.7715      2.00000
      7      -5.3002      2.00000
      8      -5.3002      2.00000
      9      -3.7609      2.00000
     10      -0.8329      0.00000
     11      -0.8328      0.00000
     12      -0.7068      0.00000
     13      -0.7067      0.00000
     14       0.9626      0.00000
     15       1.1811      0.00000
     16       1.7729      0.00000
     17       2.0206      0.00000
     18       2.0745      0.00000
     19       2.5983      0.00000
     20       3.1095      0.00000
     21       3.6523      0.00000
     22       4.4048      0.00000
     23       5.0505      0.00000
     24       5.0780      0.00000
     25       6.0335      0.00000
     26       6.7725      0.00000
     27       6.9744      0.00000
     28       6.9744      0.00000
     29       8.0646      0.00000
     30       8.4320      0.00000
     31       9.2691      0.00000
     32       9.2824      0.00000


--------------------------------------------------------------------------------------------------------


 soft charge-density along one line, spin component           1
         0         1         2         3         4         5         6         7         8         9
 total charge-density along one line
 
 pseudopotential strength for first ion, spin component:           1
 -9.046   0.000  -0.000   0.000   0.000 -10.419   0.000  -0.000
  0.000  -9.034   0.000   0.000  -0.000   0.000 -10.405   0.000
 -0.000   0.000  -9.031  -0.000  -0.000  -0.000   0.000 -10.402
  0.000   0.000  -0.000  -9.034   0.000   0.000   0.000  -0.000
  0.000  -0.000  -0.000   0.000  -9.046   0.000  -0.000  -0.000
-10.419   0.000  -0.000   0.000   0.000 -11.985   0.000  -0.000
  0.000 -10.405   0.000   0.000  -0.000   0.000 -11.968   0.000
 -0.000   0.000 -10.402  -0.000  -0.000  -0.000   0.000 -11.964
  0.000   0.000  -0.000 -10.405   0.000   0.000   0.000  -0.000
  0.000  -0.000  -0.000   0.000 -10.419   0.000  -0.000  -0.000
 -0.000  -0.000  -0.006   0.000  -0.000  -0.000  -0.000  -0.006
 -0.000  -0.000  -0.009   0.000  -0.000  -0.000  -0.000  -0.011
 -0.004   0.000   0.000   0.000  -0.000  -0.004   0.000   0.000
  0.000   0.000  -0.000  -0.000   0.000   0.000   0.000  -0.000
 -0.000   0.000   0.000   0.000   0.004  -0.000   0.000   0.000
 -0.005   0.000   0.000   0.000  -0.000  -0.005   0.000   0.000
  0.000   0.000  -0.000  -0.000   0.000   0.000   0.000  -0.000
  0.000   0.000   0.000   0.000   0.005   0.000   0.000   0.000
 total augmentation occupancy for first ion, spin component:           1
  1.000   0.000   0.000   0.000   0.000   0.000   0.000   0.000   0.000   0.000   0.000   0.000   0.000   0.000   0.000   0.000
  0.000   1.000   0.000   0.000   0.000   0.000   0.000   0.000   0.000   0.000   0.000   0.000   0.000   0.000   0.000   0.000
  0.000   0.000   1.000   0.000   0.000   0.000   0.000   0.000   0.000   0.000   0.000   0.000   0.000   0.000   0.000   0.000
  0.000   0.000   0.000   1.000   0.000   0.000   0.000   0.000   0.000   0.000   0.000   0.000   0.000   0.000   0.000   0.000
  0.000   0.000   0.000   0.000   1.000   0.000   0.000   0.000   0.000   0.000   0.000   0.000   0.000   0.000   0.000   0.000
  0.000   0.000   0.000   0.000   0.000   0.000   0.000   0.000   0.000   0.000   0.000   0.000   0.000   0.000   0.000   0.000
  0.000   0.000   0.000   0.000   0.000   0.000   0.000   0.000   0.000   0.000   0.000   0.000   0.000   0.000   0.000   0.000
  0.000   0.000   0.000   0.000   0.000   0.000   0.000   0.000   0.000   0.000   0.000   0.000   0.000   0.000   0.000   0.000
  0.000   0.000   0.000   0.000   0.000   0.000   0.000   0.000   0.000   0.000   0.000   0.000   0.000   0.000   0.000   0.000
  0.000   0.000   0.000   0.000   0.000   0.000   0.000   0.000   0.000   0.000   0.000   0.000   0.000   0.000   0.000   0.000
  0.000   0.000   0.000   0.000   0.000   0.000   0.000   0.000   0.000   0.000   1.000   0.000   0.000   0.000   0.000   0.000
  0.000   0.000   0.000   0.000   0.000   0.000   0.000   0.000   0.000   0.000   0.000   0.000   0.000   0.000   0.000   0.000
  0.000   0.000   0.000   0.000   0.000   0.000   0.000   0.000   0.000   0.000   0.000   0.000   0.000   0.000   0.000   0.000
  0.000   0.000   0.000   0.000   0.000   0.000   0.000   0.000   0.000   0.000   0.000   0.000   0.000   0.000   0.000   0.000
  0.000   0.000   0.000   0.000   0.000   0.000   0.000   0.000   0.000   0.000   0.000   0.000   0.000   0.000   0.000   0.000
  0.000   0.000   0.000   0.000   0.000   0.000   0.000   0.000   0.000   0.000   0.000   0.000   0.000   0.000   0.000   0.000
  0.000   0.000   0.000   0.000   0.000   0.000   0.000   0.000   0.000   0.000   0.000   0.000   0.000   0.000   0.000   0.000
  0.000   0.000   0.000   0.000   0.000   0.000   0.000   0.000   0.000   0.000   0.000   0.000   0.000   0.000   0.000   0.000


------------------------ aborting loop because EDIFF is reached ----------------------------------------


 


 total charge     
 
# of ion     s       p       d       tot
----------------------------------------
  1        0.560   0.637   4.445   5.642
  2        1.344   2.312   0.000   3.655
  3        1.344   2.312   0.000   3.655
------------------------------------------------
tot        3.247   5.261   4.445  12.953
 
    CHARGE:  cpu time    0.3160: real time    0.4360
    FORLOC:  cpu time    0.0140: real time    0.0146
    FORNL :  cpu time    2.7106: real time    2.9108
    STRESS:  cpu time    6.5310: real time    7.2954
    FORCOR:  cpu time    5.4452: real time    5.7571
    FORHAR:  cpu time    0.0660: real time    0.0663
    OFIELD:  cpu time    0.0010: real time    0.0006

  FORCE on cell =-STRESS in cart. coord.  units (eV):
  Direction    XX          YY          ZZ          XY          YZ          ZX
  --------------------------------------------------------------------------------------
  Alpha Z    10.94764    10.94764    10.94764
  Ewald    6198.25578  6198.25665 -6763.90696     0.00000     0.00000     0.00000
  Hartree  6276.11910  6276.11910 -6239.30568     0.00000    -0.00000    -0.00000
  E(xc)     -69.82261   -69.82262   -69.51836    -0.00000    -0.00000     0.00000
  Local  -12754.61509-12754.61574 12715.41132    -0.00000     0.00000    -0.00000
  n-local   125.38430   125.93192   131.24505     0.60925     0.00000     0.00000
  augment   -28.08127   -28.08113   -29.21826     0.00000    -0.00000    -0.00000
  Kinetic   242.02444   239.00951   244.19941     6.65760    -0.00000     0.00000
  Fock        0.00000     0.00000     0.00000     0.00000     0.00000     0.00000
  -------------------------------------------------------------------------------------
  Total      -1.02119    -1.02119    -0.14585    -0.00000    -0.00000     0.00000
  in kB      -5.79260    -5.79260    -0.82731    -0.00000    -0.00000     0.00000
  external pressure =       -4.14 kB  Pullay stress =        0.00 kB


 VOLUME and BASIS-vectors are now :
 -----------------------------------------------------------------------------
  energy-cutoff  :      500.00
  volume of cell :      282.45
      direct lattice vectors                 reciprocal lattice vectors
     2.766951153 -1.597500000  0.000000000     0.180704310 -0.312989045  0.000000000
     2.766951153  1.597500000  0.000000000     0.180704310  0.312989045  0.000000000
     0.000000000  0.000000000 31.950000000     0.000000000  0.000000000  0.031298905

  length of vectors
     3.194999990  3.194999990 31.950000000     0.361408620  0.361408620  0.031298905


 FORCES acting on ions
    electron-ion (+dipol)            ewald-force                    non-local-force                 convergence-correction
 -----------------------------------------------------------------------------------------------
   0.121E-04 -.377E-13 -.269E-07   0.211E-03 0.944E-14 0.432E-11   0.000E+00 0.000E+00 0.000E+00   -.253E-05 0.578E-14 -.930E-10
   -.978E-03 0.342E-14 -.604E+03   -.106E-03 -.110E-13 0.602E+03   0.000E+00 0.347E-17 -.293E+01   -.414E-05 -.198E-13 0.416E+01
   -.977E-03 -.109E-12 0.604E+03   -.106E-03 0.986E-14 -.602E+03   -.434E-18 0.239E-17 0.293E+01   -.414E-05 -.175E-13 -.416E+01
 -----------------------------------------------------------------------------------------------
   -.194E-02 -.143E-12 -.831E-07   0.478E-14 0.832E-14 0.000E+00   -.434E-18 0.585E-17 -.444E-15   -.108E-04 -.316E-13 -.192E-09
 
 
 POSITION                                       TOTAL-FORCE (eV/Angst)
 -----------------------------------------------------------------------------------
      1.84463      0.00000     15.97500         0.000000     -0.000000      0.000000
      3.68927      0.00000     17.54713        -0.000000      0.000000     -0.365827
      3.68927      0.00000     14.40287         0.000000      0.000000      0.365827
 -----------------------------------------------------------------------------------
    total drift:                               -0.001954     -0.000000     -0.000000


--------------------------------------------------------------------------------------------------------



  FREE ENERGIE OF THE ION-ELECTRON SYSTEM (eV)
  ---------------------------------------------------
  free  energy   TOTEN  =       -17.89066009 eV

  energy  without entropy=      -17.89066009  energy(sigma->0) =      -17.89066009
 


--------------------------------------------------------------------------------------------------------


    POTLOK:  cpu time    5.4352: real time    5.8275


--------------------------------------------------------------------------------------------------------


     LOOP+:  cpu time  314.3322: real time  388.1791
    4ORBIT:  cpu time    0.0000: real time    0.0000
 


 total charge     
 
# of ion     s       p       d       tot
----------------------------------------
  1        0.560   0.637   4.445   5.642
  2        1.344   2.312   0.000   3.655
  3        1.344   2.312   0.000   3.655
------------------------------------------------
tot        3.247   5.261   4.445  12.953
 

 total amount of memory used by VASP on root node   165767. kBytes
========================================================================

   base      :      30000. kBytes
   nonl-proj :      67928. kBytes
   fftplans  :       2630. kBytes
   grid      :       4292. kBytes
   one-center:         15. kBytes
   wavefun   :      60902. kBytes
 
  
  
 General timing and accounting informations for this job:
 ========================================================
  
                  Total CPU time used (sec):      332.712
                            User time (sec):      325.162
                          System time (sec):        7.551
                         Elapsed time (sec):      409.256
  
                   Maximum memory used (kb):      315176.
                   Average memory used (kb):           0.
  
                          Minor page faults:        17048
                          Major page faults:           39
                 Voluntary context switches:         1086
