PROCAR lm decomposed
# of k-points:  130         # of bands:  32         # of ions:   3

 k-point    1 :    0.00000000 0.00000000 0.00000000     weight = 0.00769231

band   1 # energy  -18.32470316 # occ.  2.00000000
 
ion      s     py     pz     px    dxy    dyz    dz2    dxz    dx2    tot
  1  0.177  0.000  0.000  0.000  0.000  0.000  0.000  0.000  0.000  0.177
  2  0.260  0.000  0.007  0.000  0.000  0.000  0.000  0.000  0.000  0.267
  3  0.260  0.000  0.007  0.000  0.000  0.000  0.000  0.000  0.000  0.267
tot  0.697  0.000  0.014  0.000  0.000  0.000  0.000  0.000  0.000  0.711
 
band   2 # energy  -16.78296880 # occ.  2.00000000
 
ion      s     py     pz     px    dxy    dyz    dz2    dxz    dx2    tot
  1  0.000  0.000  0.067  0.000  0.000  0.000  0.000  0.000  0.000  0.067
  2  0.314  0.000  0.001  0.000  0.000  0.000  0.000  0.000  0.000  0.315
  3  0.314  0.000  0.001  0.000  0.000  0.000  0.000  0.000  0.000  0.315
tot  0.629  0.000  0.068  0.000  0.000  0.000  0.000  0.000  0.000  0.697
 
band   3 # energy   -9.94157210 # occ.  2.00000000
 
ion      s     py     pz     px    dxy    dyz    dz2    dxz    dx2    tot
  1  0.153  0.000  0.000  0.000  0.000  0.000  0.197  0.000  0.000  0.350
  2  0.030  0.000  0.115  0.000  0.000  0.000  0.000  0.000  0.000  0.145
  3  0.030  0.000  0.115  0.000  0.000  0.000  0.000  0.000  0.000  0.145
tot  0.214  0.000  0.229  0.000  0.000  0.000  0.197  0.000  0.000  0.640
 
band   4 # energy   -6.52439690 # occ.  2.00000000
 
ion      s     py     pz     px    dxy    dyz    dz2    dxz    dx2    tot
  1  0.000  0.000  0.000  0.008  0.000  0.000  0.000  0.000  0.586  0.594
  2  0.000  0.000  0.000  0.122  0.000  0.000  0.000  0.000  0.000  0.122
  3  0.000  0.000  0.000  0.122  0.000  0.000  0.000  0.000  0.000  0.122
tot  0.000  0.000  0.000  0.252  0.000  0.000  0.000  0.000  0.586  0.838
 
band   5 # energy   -6.52438613 # occ.  2.00000000
 
ion      s     py     pz     px    dxy    dyz    dz2    dxz    dx2    tot
  1  0.000  0.008  0.000  0.000  0.586  0.000  0.000  0.000  0.000  0.594
  2  0.000  0.122  0.000  0.000  0.000  0.000  0.000  0.000  0.000  0.122
  3  0.000  0.122  0.000  0.000  0.000  0.000  0.000  0.000  0.000  0.122
tot  0.000  0.252  0.000  0.000  0.586  0.000  0.000  0.000  0.000  0.838
 
band   6 # energy   -5.77147588 # occ.  2.00000000
 
ion      s     py     pz     px    dxy    dyz    dz2    dxz    dx2    tot
  1  0.000  0.000  0.061  0.000  0.000  0.000  0.000  0.000  0.000  0.061
  2  0.000  0.000  0.244  0.000  0.000  0.000  0.000  0.000  0.000  0.244
  3  0.000  0.000  0.244  0.000  0.000  0.000  0.000  0.000  0.000  0.244
tot  0.000  0.000  0.550  0.000  0.000  0.000  0.000  0.000  0.000  0.550
 
band   7 # energy   -5.30021659 # occ.  2.00000000
 
ion      s     py     pz     px    dxy    dyz    dz2    dxz    dx2    tot
  1  0.000  0.000  0.000  0.000  0.000  0.497  0.000  0.000  0.000  0.497
  2  0.000  0.173  0.000  0.000  0.000  0.000  0.000  0.000  0.000  0.173
  3  0.000  0.173  0.000  0.000  0.000  0.000  0.000  0.000  0.000  0.173
tot  0.000  0.345  0.000  0.000  0.000  0.497  0.000  0.000  0.000  0.842
 
band   8 # energy   -5.30015976 # occ.  2.00000000
 
ion      s     py     pz     px    dxy    dyz    dz2    dxz    dx2    tot
  1  0.000  0.000  0.000  0.000  0.000  0.000  0.000  0.497  0.000  0.497
  2  0.000  0.000  0.000  0.173  0.000  0.000  0.000  0.000  0.000  0.173
  3  0.000  0.000  0.000  0.173  0.000  0.000  0.000  0.000  0.000  0.173
tot  0.000  0.000  0.000  0.345  0.000  0.000  0.000  0.497  0.000  0.842
 
band   9 # energy   -3.76094828 # occ.  2.00000000
 
ion      s     py     pz     px    dxy    dyz    dz2    dxz    dx2    tot
  1  0.014  0.000  0.000  0.000  0.000  0.000  0.596  0.000  0.000  0.610
  2  0.003  0.000  0.066  0.000  0.000  0.000  0.000  0.000  0.000  0.069
  3  0.003  0.000  0.066  0.000  0.000  0.000  0.000  0.000  0.000  0.069
tot  0.019  0.000  0.132  0.000  0.000  0.000  0.596  0.000  0.000  0.747
 
band  10 # energy   -0.83287690 # occ.  0.00000000
 
ion      s     py     pz     px    dxy    dyz    dz2    dxz    dx2    tot
  1  0.000  0.000  0.000  0.000  0.000  0.000  0.000  0.397  0.000  0.397
  2  0.000  0.000  0.000  0.162  0.000  0.000  0.000  0.000  0.000  0.162
  3  0.000  0.000  0.000  0.162  0.000  0.000  0.000  0.000  0.000  0.162
tot  0.000  0.000  0.000  0.324  0.000  0.000  0.000  0.397  0.000  0.721
 
band  11 # energy   -0.83282162 # occ.  0.00000000
 
ion      s     py     pz     px    dxy    dyz    dz2    dxz    dx2    tot
  1  0.000  0.000  0.000  0.000  0.000  0.397  0.000  0.000  0.000  0.397
  2  0.000  0.162  0.000  0.000  0.000  0.000  0.000  0.000  0.000  0.162
  3  0.000  0.162  0.000  0.000  0.000  0.000  0.000  0.000  0.000  0.162
tot  0.000  0.324  0.000  0.000  0.000  0.397  0.000  0.000  0.000  0.721
 
band  12 # energy   -0.70676702 # occ.  0.00000000
 
ion      s     py     pz     px    dxy    dyz    dz2    dxz    dx2    tot
  1  0.000  0.022  0.000  0.000  0.311  0.000  0.000  0.000  0.000  0.333
  2  0.000  0.219  0.000  0.000  0.000  0.000  0.000  0.000  0.000  0.219
  3  0.000  0.219  0.000  0.000  0.000  0.000  0.000  0.000  0.000  0.219
tot  0.000  0.461  0.000  0.000  0.311  0.000  0.000  0.000  0.000  0.772
 
band  13 # energy   -0.70674131 # occ.  0.00000000
 
ion      s     py     pz     px    dxy    dyz    dz2    dxz    dx2    tot
  1  0.000  0.000  0.000  0.022  0.000  0.000  0.000  0.000  0.311  0.333
  2  0.000  0.000  0.000  0.219  0.000  0.000  0.000  0.000  0.000  0.219
  3  0.000  0.000  0.000  0.219  0.000  0.000  0.000  0.000  0.000  0.219
tot  0.000  0.000  0.000  0.461  0.000  0.000  0.000  0.000  0.311  0.772
 
band  14 # energy    0.96262858 # occ.  0.00000000
 
ion      s     py     pz     px    dxy    dyz    dz2    dxz    dx2    tot
  1  0.061  0.000  0.000  0.000  0.000  0.000  0.029  0.000  0.000  0.091
  2  0.041  0.000  0.000  0.000  0.000  0.000  0.000  0.000  0.000  0.041
  3  0.041  0.000  0.000  0.000  0.000  0.000  0.000  0.000  0.000  0.041
tot  0.143  0.000  0.000  0.000  0.000  0.000  0.029  0.000  0.000  0.172
 
band  15 # energy    1.18109963 # occ.  0.00000000
 
ion      s     py     pz     px    dxy    dyz    dz2    dxz    dx2    tot
  1  0.000  0.000  0.002  0.000  0.000  0.000  0.000  0.000  0.000  0.002
  2  0.002  0.000  0.016  0.000  0.000  0.000  0.000  0.000  0.000  0.018
  3  0.002  0.000  0.016  0.000  0.000  0.000  0.000  0.000  0.000  0.018
tot  0.005  0.000  0.034  0.000  0.000  0.000  0.000  0.000  0.000  0.039
 
band  16 # energy    1.77286585 # occ.  0.00000000
 
ion      s     py     pz     px    dxy    dyz    dz2    dxz    dx2    tot
  1  0.083  0.000  0.000  0.000  0.000  0.000  0.001  0.000  0.000  0.084
  2  0.043  0.000  0.022  0.000  0.000  0.000  0.000  0.000  0.000  0.064
  3  0.043  0.000  0.022  0.000  0.000  0.000  0.000  0.000  0.000  0.064
tot  0.168  0.000  0.044  0.000  0.000  0.000  0.001  0.000  0.000  0.213
 
band  17 # energy    2.02062553 # occ.  0.00000000
 
ion      s     py     pz     px    dxy    dyz    dz2    dxz    dx2    tot
  1  0.030  0.000  0.000  0.000  0.000  0.000  0.000  0.000  0.000  0.031
  2  0.013  0.000  0.018  0.000  0.000  0.000  0.000  0.000  0.000  0.031
  3  0.013  0.000  0.018  0.000  0.000  0.000  0.000  0.000  0.000  0.031
tot  0.057  0.000  0.036  0.000  0.000  0.000  0.000  0.000  0.000  0.093
 
band  18 # energy    2.07446288 # occ.  0.00000000
 
ion      s     py     pz     px    dxy    dyz    dz2    dxz    dx2    tot
  1  0.000  0.000  0.000  0.000  0.000  0.000  0.000  0.000  0.000  0.000
  2  0.001  0.000  0.004  0.000  0.000  0.000  0.000  0.000  0.000  0.004
  3  0.001  0.000  0.004  0.000  0.000  0.000  0.000  0.000  0.000  0.004
tot  0.001  0.000  0.007  0.000  0.000  0.000  0.000  0.000  0.000  0.009
 
band  19 # energy    2.59832506 # occ.  0.00000000
 
ion      s     py     pz     px    dxy    dyz    dz2    dxz    dx2    tot
  1  0.002  0.000  0.000  0.000  0.000  0.000  0.003  0.000  0.000  0.005
  2  0.000  0.000  0.007  0.000  0.000  0.000  0.000  0.000  0.000  0.008
  3  0.000  0.000  0.007  0.000  0.000  0.000  0.000  0.000  0.000  0.008
tot  0.003  0.000  0.015  0.000  0.000  0.000  0.003  0.000  0.000  0.021
 
band  20 # energy    3.10954078 # occ.  0.00000000
 
ion      s     py     pz     px    dxy    dyz    dz2    dxz    dx2    tot
  1  0.000  0.000  0.001  0.000  0.000  0.000  0.000  0.000  0.000  0.001
  2  0.001  0.000  0.006  0.000  0.000  0.000  0.000  0.000  0.000  0.007
  3  0.001  0.000  0.006  0.000  0.000  0.000  0.000  0.000  0.000  0.007
tot  0.003  0.000  0.012  0.000  0.000  0.000  0.000  0.000  0.000  0.015
 
band  21 # energy    3.65229212 # occ.  0.00000000
 
ion      s     py     pz     px    dxy    dyz    dz2    dxz    dx2    tot
  1  0.000  0.000  0.000  0.000  0.000  0.000  0.008  0.000  0.000  0.008
  2  0.001  0.000  0.007  0.000  0.000  0.000  0.000  0.000  0.000  0.008
  3  0.001  0.000  0.007  0.000  0.000  0.000  0.000  0.000  0.000  0.008
tot  0.001  0.000  0.014  0.000  0.000  0.000  0.008  0.000  0.000  0.023
 
band  22 # energy    4.40477969 # occ.  0.00000000
 
ion      s     py     pz     px    dxy    dyz    dz2    dxz    dx2    tot
  1  0.000  0.000  0.001  0.000  0.000  0.000  0.000  0.000  0.000  0.001
  2  0.002  0.000  0.008  0.000  0.000  0.000  0.000  0.000  0.000  0.010
  3  0.002  0.000  0.008  0.000  0.000  0.000  0.000  0.000  0.000  0.010
tot  0.004  0.000  0.017  0.000  0.000  0.000  0.000  0.000  0.000  0.022
 
band  23 # energy    5.05051232 # occ.  0.00000000
 
ion      s     py     pz     px    dxy    dyz    dz2    dxz    dx2    tot
  1  0.000  0.000  0.100  0.000  0.000  0.000  0.000  0.000  0.000  0.100
  2  0.083  0.000  0.000  0.000  0.000  0.000  0.000  0.000  0.000  0.083
  3  0.083  0.000  0.000  0.000  0.000  0.000  0.000  0.000  0.000  0.083
tot  0.167  0.000  0.100  0.000  0.000  0.000  0.000  0.000  0.000  0.266
 
band  24 # energy    5.07804056 # occ.  0.00000000
 
ion      s     py     pz     px    dxy    dyz    dz2    dxz    dx2    tot
  1  0.003  0.000  0.000  0.000  0.000  0.000  0.013  0.000  0.000  0.016
  2  0.003  0.000  0.004  0.000  0.000  0.000  0.000  0.000  0.000  0.008
  3  0.003  0.000  0.004  0.000  0.000  0.000  0.000  0.000  0.000  0.008
tot  0.010  0.000  0.009  0.000  0.000  0.000  0.013  0.000  0.000  0.031
 
band  25 # energy    6.03345763 # occ.  0.00000000
 
ion      s     py     pz     px    dxy    dyz    dz2    dxz    dx2    tot
  1  0.000  0.000  0.001  0.000  0.000  0.000  0.000  0.000  0.000  0.001
  2  0.004  0.000  0.010  0.000  0.000  0.000  0.000  0.000  0.000  0.013
  3  0.004  0.000  0.010  0.000  0.000  0.000  0.000  0.000  0.000  0.013
tot  0.007  0.000  0.020  0.000  0.000  0.000  0.000  0.000  0.000  0.027
 
band  26 # energy    6.77249354 # occ.  0.00000000
 
ion      s     py     pz     px    dxy    dyz    dz2    dxz    dx2    tot
  1  0.012  0.000  0.000  0.000  0.000  0.000  0.021  0.000  0.000  0.033
  2  0.006  0.000  0.000  0.000  0.000  0.000  0.000  0.000  0.000  0.006
  3  0.006  0.000  0.000  0.000  0.000  0.000  0.000  0.000  0.000  0.006
tot  0.024  0.000  0.000  0.000  0.000  0.000  0.021  0.000  0.000  0.045
 
band  27 # energy    6.97442211 # occ.  0.00000000
 
ion      s     py     pz     px    dxy    dyz    dz2    dxz    dx2    tot
  1  0.000  0.000  0.000  0.151  0.000  0.000  0.000  0.000  0.018  0.169
  2  0.000  0.000  0.000  0.004  0.000  0.000  0.000  0.000  0.000  0.004
  3  0.000  0.000  0.000  0.004  0.000  0.000  0.000  0.000  0.000  0.004
tot  0.000  0.000  0.000  0.159  0.000  0.000  0.000  0.000  0.018  0.176
 
band  28 # energy    6.97444349 # occ.  0.00000000
 
ion      s     py     pz     px    dxy    dyz    dz2    dxz    dx2    tot
  1  0.000  0.151  0.000  0.000  0.018  0.000  0.000  0.000  0.000  0.169
  2  0.000  0.004  0.000  0.000  0.000  0.000  0.000  0.000  0.000  0.004
  3  0.000  0.004  0.000  0.000  0.000  0.000  0.000  0.000  0.000  0.004
tot  0.000  0.159  0.000  0.000  0.018  0.000  0.000  0.000  0.000  0.176
 
band  29 # energy    8.06458740 # occ.  0.00000000
 
ion      s     py     pz     px    dxy    dyz    dz2    dxz    dx2    tot
  1  0.000  0.000  0.000  0.000  0.000  0.000  0.000  0.000  0.000  0.000
  2  0.005  0.000  0.009  0.000  0.000  0.000  0.000  0.000  0.000  0.013
  3  0.004  0.000  0.009  0.000  0.000  0.000  0.000  0.000  0.000  0.013
tot  0.009  0.000  0.018  0.000  0.000  0.000  0.000  0.000  0.000  0.027
 
band  30 # energy    8.43198434 # occ.  0.00000000
 
ion      s     py     pz     px    dxy    dyz    dz2    dxz    dx2    tot
  1  0.064  0.000  0.000  0.000  0.000  0.000  0.074  0.000  0.000  0.139
  2  0.002  0.000  0.031  0.000  0.000  0.000  0.000  0.000  0.000  0.033
  3  0.002  0.000  0.031  0.000  0.000  0.000  0.000  0.000  0.000  0.033
tot  0.068  0.000  0.063  0.000  0.000  0.000  0.074  0.000  0.000  0.205
 
band  31 # energy    9.26904301 # occ.  0.00000000
 
ion      s     py     pz     px    dxy    dyz    dz2    dxz    dx2    tot
  1  0.000  0.000  0.000  0.000  0.000  0.065  0.000  0.011  0.000  0.076
  2  0.000  0.005  0.000  0.001  0.000  0.000  0.000  0.000  0.000  0.006
  3  0.000  0.005  0.000  0.001  0.000  0.000  0.000  0.000  0.000  0.006
tot  0.000  0.011  0.000  0.002  0.000  0.065  0.000  0.011  0.000  0.088
 
band  32 # energy    9.27370750 # occ.  0.00000000
 
ion      s     py     pz     px    dxy    dyz    dz2    dxz    dx2    tot
  1  0.002  0.000  0.000  0.000  0.000  0.010  0.002  0.061  0.000  0.076
  2  0.000  0.001  0.003  0.005  0.000  0.000  0.000  0.000  0.000  0.009
  3  0.000  0.001  0.003  0.005  0.000  0.000  0.000  0.000  0.000  0.009
tot  0.003  0.002  0.006  0.010  0.000  0.010  0.002  0.061  0.000  0.094
 

 k-point    2 :    0.01250000 0.00000000 0.00000000     weight = 0.00769231

band   1 # energy  -18.32223994 # occ.  2.00000000
 
ion      s     py     pz     px    dxy    dyz    dz2    dxz    dx2    tot
  1  0.177  0.000  0.000  0.000  0.000  0.000  0.000  0.000  0.000  0.177
  2  0.260  0.000  0.007  0.000  0.000  0.000  0.000  0.000  0.000  0.267
  3  0.260  0.000  0.007  0.000  0.000  0.000  0.000  0.000  0.000  0.267
tot  0.697  0.000  0.014  0.000  0.000  0.000  0.000  0.000  0.000  0.711
 
band   2 # energy  -16.78195646 # occ.  2.00000000
 
ion      s     py     pz     px    dxy    dyz    dz2    dxz    dx2    tot
  1  0.000  0.000  0.067  0.000  0.000  0.000  0.000  0.000  0.000  0.067
  2  0.314  0.000  0.001  0.000  0.000  0.000  0.000  0.000  0.000  0.315
  3  0.314  0.000  0.001  0.000  0.000  0.000  0.000  0.000  0.000  0.315
tot  0.629  0.000  0.068  0.000  0.000  0.000  0.000  0.000  0.000  0.697
 
band   3 # energy   -9.93849441 # occ.  2.00000000
 
ion      s     py     pz     px    dxy    dyz    dz2    dxz    dx2    tot
  1  0.153  0.000  0.000  0.000  0.000  0.000  0.197  0.000  0.000  0.350
  2  0.030  0.000  0.115  0.000  0.000  0.000  0.000  0.000  0.000  0.145
  3  0.030  0.000  0.115  0.000  0.000  0.000  0.000  0.000  0.000  0.145
tot  0.214  0.000  0.229  0.000  0.000  0.000  0.197  0.000  0.000  0.640
 
band   4 # energy   -6.53134814 # occ.  2.00000000
 
ion      s     py     pz     px    dxy    dyz    dz2    dxz    dx2    tot
  1  0.000  0.006  0.000  0.002  0.439  0.000  0.000  0.000  0.147  0.593
  2  0.000  0.091  0.000  0.031  0.000  0.000  0.000  0.000  0.000  0.122
  3  0.000  0.091  0.000  0.031  0.000  0.000  0.000  0.000  0.000  0.122
tot  0.001  0.189  0.000  0.063  0.439  0.000  0.000  0.000  0.147  0.838
 
band   5 # energy   -6.52187211 # occ.  2.00000000
 
ion      s     py     pz     px    dxy    dyz    dz2    dxz    dx2    tot
  1  0.000  0.002  0.000  0.006  0.147  0.000  0.000  0.000  0.439  0.594
  2  0.000  0.031  0.000  0.092  0.000  0.000  0.000  0.000  0.000  0.122
  3  0.000  0.031  0.000  0.092  0.000  0.000  0.000  0.000  0.000  0.122
tot  0.000  0.063  0.000  0.189  0.147  0.000  0.000  0.000  0.439  0.838
 
band   6 # energy   -5.78556594 # occ.  2.00000000
 
ion      s     py     pz     px    dxy    dyz    dz2    dxz    dx2    tot
  1  0.000  0.000  0.058  0.000  0.000  0.014  0.000  0.005  0.000  0.076
  2  0.000  0.003  0.237  0.001  0.000  0.000  0.000  0.000  0.000  0.241
  3  0.000  0.003  0.237  0.001  0.000  0.000  0.000  0.000  0.000  0.241
tot  0.000  0.007  0.532  0.002  0.000  0.014  0.000  0.005  0.000  0.559
 
band   7 # energy   -5.30440744 # occ.  2.00000000
 
ion      s     py     pz     px    dxy    dyz    dz2    dxz    dx2    tot
  1  0.000  0.000  0.000  0.000  0.000  0.125  0.000  0.372  0.000  0.497
  2  0.000  0.043  0.000  0.129  0.000  0.000  0.000  0.000  0.000  0.173
  3  0.000  0.043  0.000  0.129  0.000  0.000  0.000  0.000  0.000  0.173
tot  0.000  0.087  0.000  0.259  0.000  0.125  0.000  0.372  0.000  0.842
 
band   8 # energy   -5.29027346 # occ.  2.00000000
 
ion      s     py     pz     px    dxy    dyz    dz2    dxz    dx2    tot
  1  0.000  0.000  0.003  0.000  0.000  0.357  0.000  0.120  0.000  0.481
  2  0.000  0.126  0.007  0.042  0.000  0.000  0.000  0.000  0.000  0.176
  3  0.000  0.126  0.007  0.042  0.000  0.000  0.000  0.000  0.000  0.176
tot  0.000  0.253  0.018  0.085  0.000  0.357  0.000  0.120  0.000  0.833
 
band   9 # energy   -3.76200981 # occ.  2.00000000
 
ion      s     py     pz     px    dxy    dyz    dz2    dxz    dx2    tot
  1  0.014  0.000  0.000  0.000  0.000  0.000  0.596  0.000  0.000  0.610
  2  0.003  0.000  0.066  0.000  0.000  0.000  0.000  0.000  0.000  0.069
  3  0.003  0.000  0.066  0.000  0.000  0.000  0.000  0.000  0.000  0.069
tot  0.019  0.000  0.132  0.000  0.000  0.000  0.596  0.000  0.000  0.748
 
band  10 # energy   -0.83607088 # occ.  0.00000000
 
ion      s     py     pz     px    dxy    dyz    dz2    dxz    dx2    tot
  1  0.000  0.000  0.000  0.000  0.000  0.297  0.000  0.100  0.000  0.398
  2  0.000  0.120  0.000  0.041  0.000  0.000  0.000  0.000  0.000  0.162
  3  0.000  0.120  0.000  0.041  0.000  0.000  0.000  0.000  0.000  0.162
tot  0.001  0.241  0.000  0.081  0.000  0.297  0.000  0.100  0.000  0.721
 
band  11 # energy   -0.82789649 # occ.  0.00000000
 
ion      s     py     pz     px    dxy    dyz    dz2    dxz    dx2    tot
  1  0.000  0.000  0.000  0.000  0.000  0.100  0.000  0.297  0.000  0.397
  2  0.000  0.041  0.000  0.121  0.000  0.000  0.000  0.000  0.000  0.162
  3  0.000  0.041  0.000  0.121  0.000  0.000  0.000  0.000  0.000  0.162
tot  0.000  0.082  0.000  0.242  0.000  0.100  0.000  0.297  0.000  0.721
 
band  12 # energy   -0.71462925 # occ.  0.00000000
 
ion      s     py     pz     px    dxy    dyz    dz2    dxz    dx2    tot
  1  0.000  0.017  0.000  0.005  0.234  0.000  0.000  0.000  0.077  0.334
  2  0.000  0.164  0.000  0.054  0.000  0.000  0.000  0.000  0.000  0.218
  3  0.000  0.164  0.000  0.054  0.000  0.000  0.000  0.000  0.000  0.218
tot  0.001  0.344  0.000  0.114  0.234  0.000  0.000  0.000  0.077  0.770
 
band  13 # energy   -0.70917832 # occ.  0.00000000
 
ion      s     py     pz     px    dxy    dyz    dz2    dxz    dx2    tot
  1  0.000  0.006  0.000  0.017  0.077  0.000  0.000  0.000  0.234  0.334
  2  0.000  0.054  0.000  0.165  0.000  0.000  0.000  0.000  0.000  0.219
  3  0.000  0.054  0.000  0.165  0.000  0.000  0.000  0.000  0.000  0.219
tot  0.000  0.114  0.000  0.346  0.077  0.000  0.000  0.000  0.234  0.772
 
band  14 # energy    0.96931185 # occ.  0.00000000
 
ion      s     py     pz     px    dxy    dyz    dz2    dxz    dx2    tot
  1  0.060  0.000  0.000  0.000  0.000  0.000  0.029  0.000  0.000  0.090
  2  0.040  0.000  0.000  0.000  0.000  0.000  0.000  0.000  0.000  0.041
  3  0.040  0.000  0.000  0.000  0.000  0.000  0.000  0.000  0.000  0.041
tot  0.141  0.001  0.000  0.000  0.000  0.000  0.029  0.000  0.000  0.172
 
band  15 # energy    1.18428912 # occ.  0.00000000
 
ion      s     py     pz     px    dxy    dyz    dz2    dxz    dx2    tot
  1  0.000  0.000  0.002  0.000  0.000  0.000  0.000  0.000  0.000  0.002
  2  0.002  0.000  0.016  0.000  0.000  0.000  0.000  0.000  0.000  0.018
  3  0.002  0.000  0.016  0.000  0.000  0.000  0.000  0.000  0.000  0.018
tot  0.005  0.000  0.034  0.000  0.000  0.000  0.000  0.000  0.000  0.039
 
band  16 # energy    1.78058651 # occ.  0.00000000
 
ion      s     py     pz     px    dxy    dyz    dz2    dxz    dx2    tot
  1  0.082  0.000  0.000  0.000  0.000  0.000  0.001  0.000  0.000  0.083
  2  0.042  0.000  0.021  0.000  0.000  0.000  0.000  0.000  0.000  0.064
  3  0.042  0.000  0.021  0.000  0.000  0.000  0.000  0.000  0.000  0.064
tot  0.166  0.000  0.042  0.000  0.000  0.000  0.001  0.000  0.000  0.211
 
band  17 # energy    2.02585289 # occ.  0.00000000
 
ion      s     py     pz     px    dxy    dyz    dz2    dxz    dx2    tot
  1  0.032  0.000  0.000  0.000  0.000  0.000  0.000  0.000  0.000  0.032
  2  0.014  0.000  0.018  0.000  0.000  0.000  0.000  0.000  0.000  0.032
  3  0.014  0.000  0.018  0.000  0.000  0.000  0.000  0.000  0.000  0.032
tot  0.060  0.000  0.037  0.000  0.000  0.000  0.000  0.000  0.000  0.097
 
band  18 # energy    2.07753427 # occ.  0.00000000
 
ion      s     py     pz     px    dxy    dyz    dz2    dxz    dx2    tot
  1  0.000  0.000  0.000  0.000  0.000  0.000  0.000  0.000  0.000  0.000
  2  0.001  0.000  0.004  0.000  0.000  0.000  0.000  0.000  0.000  0.004
  3  0.001  0.000  0.004  0.000  0.000  0.000  0.000  0.000  0.000  0.004
tot  0.001  0.000  0.007  0.000  0.000  0.000  0.000  0.000  0.000  0.009
 
band  19 # energy    2.60182406 # occ.  0.00000000
 
ion      s     py     pz     px    dxy    dyz    dz2    dxz    dx2    tot
  1  0.002  0.000  0.000  0.000  0.000  0.000  0.003  0.000  0.000  0.005
  2  0.000  0.000  0.008  0.000  0.000  0.000  0.000  0.000  0.000  0.008
  3  0.000  0.000  0.008  0.000  0.000  0.000  0.000  0.000  0.000  0.008
tot  0.003  0.000  0.015  0.000  0.000  0.000  0.003  0.000  0.000  0.021
 
band  20 # energy    3.11257822 # occ.  0.00000000
 
ion      s     py     pz     px    dxy    dyz    dz2    dxz    dx2    tot
  1  0.000  0.000  0.001  0.000  0.000  0.000  0.000  0.000  0.000  0.001
  2  0.001  0.000  0.006  0.000  0.000  0.000  0.000  0.000  0.000  0.007
  3  0.001  0.000  0.006  0.000  0.000  0.000  0.000  0.000  0.000  0.007
tot  0.002  0.000  0.012  0.000  0.000  0.000  0.000  0.000  0.000  0.015
 
band  21 # energy    3.65562257 # occ.  0.00000000
 
ion      s     py     pz     px    dxy    dyz    dz2    dxz    dx2    tot
  1  0.000  0.000  0.000  0.000  0.000  0.000  0.008  0.000  0.000  0.008
  2  0.001  0.000  0.007  0.000  0.000  0.000  0.000  0.000  0.000  0.008
  3  0.001  0.000  0.007  0.000  0.000  0.000  0.000  0.000  0.000  0.008
tot  0.001  0.000  0.014  0.000  0.000  0.000  0.008  0.000  0.000  0.023
 
band  22 # energy    4.40773702 # occ.  0.00000000
 
ion      s     py     pz     px    dxy    dyz    dz2    dxz    dx2    tot
  1  0.000  0.000  0.001  0.000  0.000  0.000  0.000  0.000  0.000  0.001
  2  0.002  0.000  0.008  0.000  0.000  0.000  0.000  0.000  0.000  0.010
  3  0.002  0.000  0.008  0.000  0.000  0.000  0.000  0.000  0.000  0.010
tot  0.004  0.000  0.017  0.000  0.000  0.000  0.000  0.000  0.000  0.022
 
band  23 # energy    5.06224593 # occ.  0.00000000
 
ion      s     py     pz     px    dxy    dyz    dz2    dxz    dx2    tot
  1  0.000  0.000  0.100  0.000  0.000  0.000  0.000  0.000  0.000  0.100
  2  0.083  0.000  0.000  0.000  0.000  0.000  0.000  0.000  0.000  0.084
  3  0.083  0.000  0.000  0.000  0.000  0.000  0.000  0.000  0.000  0.084
tot  0.166  0.001  0.100  0.000  0.000  0.000  0.000  0.000  0.000  0.267
 
band  24 # energy    5.08107885 # occ.  0.00000000
 
ion      s     py     pz     px    dxy    dyz    dz2    dxz    dx2    tot
  1  0.003  0.000  0.000  0.000  0.000  0.000  0.013  0.000  0.000  0.016
  2  0.003  0.000  0.004  0.000  0.000  0.000  0.000  0.000  0.000  0.008
  3  0.003  0.000  0.004  0.000  0.000  0.000  0.000  0.000  0.000  0.008
tot  0.010  0.000  0.009  0.000  0.000  0.000  0.013  0.000  0.000  0.031
 
band  25 # energy    6.03627720 # occ.  0.00000000
 
ion      s     py     pz     px    dxy    dyz    dz2    dxz    dx2    tot
  1  0.000  0.000  0.001  0.000  0.000  0.000  0.000  0.000  0.000  0.001
  2  0.004  0.000  0.010  0.000  0.000  0.000  0.000  0.000  0.000  0.013
  3  0.004  0.000  0.010  0.000  0.000  0.000  0.000  0.000  0.000  0.013
tot  0.007  0.000  0.020  0.000  0.000  0.000  0.000  0.000  0.000  0.027
 
band  26 # energy    6.76531713 # occ.  0.00000000
 
ion      s     py     pz     px    dxy    dyz    dz2    dxz    dx2    tot
  1  0.013  0.005  0.000  0.002  0.001  0.000  0.021  0.000  0.000  0.042
  2  0.006  0.000  0.000  0.000  0.000  0.000  0.000  0.000  0.000  0.006
  3  0.006  0.000  0.000  0.000  0.000  0.000  0.000  0.000  0.000  0.006
tot  0.024  0.006  0.000  0.002  0.001  0.000  0.021  0.000  0.000  0.053
 
band  27 # energy    6.97111913 # occ.  0.00000000
 
ion      s     py     pz     px    dxy    dyz    dz2    dxz    dx2    tot
  1  0.000  0.107  0.000  0.036  0.012  0.000  0.001  0.000  0.004  0.160
  2  0.000  0.003  0.001  0.001  0.000  0.000  0.000  0.000  0.000  0.005
  3  0.000  0.003  0.001  0.001  0.000  0.000  0.000  0.000  0.000  0.005
tot  0.001  0.112  0.002  0.038  0.012  0.000  0.001  0.000  0.004  0.169
 
band  28 # energy    6.98185033 # occ.  0.00000000
 
ion      s     py     pz     px    dxy    dyz    dz2    dxz    dx2    tot
  1  0.000  0.038  0.000  0.113  0.004  0.000  0.000  0.000  0.013  0.169
  2  0.000  0.001  0.000  0.003  0.000  0.000  0.000  0.000  0.000  0.004
  3  0.000  0.001  0.000  0.003  0.000  0.000  0.000  0.000  0.000  0.004
tot  0.000  0.040  0.000  0.119  0.004  0.000  0.000  0.000  0.013  0.177
 
band  29 # energy    8.06699334 # occ.  0.00000000
 
ion      s     py     pz     px    dxy    dyz    dz2    dxz    dx2    tot
  1  0.000  0.000  0.000  0.000  0.000  0.000  0.000  0.000  0.000  0.000
  2  0.004  0.000  0.009  0.000  0.000  0.000  0.000  0.000  0.000  0.013
  3  0.004  0.000  0.009  0.000  0.000  0.000  0.000  0.000  0.000  0.013
tot  0.009  0.000  0.018  0.000  0.000  0.000  0.000  0.000  0.000  0.027
 
band  30 # energy    8.44171784 # occ.  0.00000000
 
ion      s     py     pz     px    dxy    dyz    dz2    dxz    dx2    tot
  1  0.063  0.001  0.000  0.000  0.000  0.000  0.074  0.000  0.000  0.139
  2  0.002  0.000  0.031  0.000  0.000  0.000  0.000  0.000  0.000  0.033
  3  0.002  0.000  0.031  0.000  0.000  0.000  0.000  0.000  0.000  0.033
tot  0.067  0.001  0.061  0.000  0.000  0.000  0.074  0.000  0.000  0.204
 
band  31 # energy    9.24703742 # occ.  0.00000000
 
ion      s     py     pz     px    dxy    dyz    dz2    dxz    dx2    tot
  1  0.000  0.000  0.000  0.000  0.000  0.049  0.000  0.026  0.000  0.075
  2  0.000  0.004  0.000  0.002  0.000  0.000  0.000  0.000  0.000  0.006
  3  0.000  0.004  0.000  0.002  0.000  0.000  0.000  0.000  0.000  0.006
tot  0.000  0.008  0.000  0.004  0.000  0.049  0.000  0.026  0.000  0.088
 
band  32 # energy    9.27814644 # occ.  0.00000000
 
ion      s     py     pz     px    dxy    dyz    dz2    dxz    dx2    tot
  1  0.001  0.000  0.000  0.000  0.000  0.025  0.002  0.048  0.000  0.076
  2  0.000  0.002  0.002  0.004  0.000  0.000  0.000  0.000  0.000  0.008
  3  0.000  0.002  0.002  0.004  0.000  0.000  0.000  0.000  0.000  0.008
tot  0.002  0.004  0.004  0.008  0.000  0.025  0.002  0.048  0.000  0.092
 

 k-point    3 :    0.02500000 0.00000000 0.00000000     weight = 0.00769231

band   1 # energy  -18.31485419 # occ.  2.00000000
 
ion      s     py     pz     px    dxy    dyz    dz2    dxz    dx2    tot
  1  0.177  0.000  0.000  0.000  0.000  0.000  0.000  0.000  0.000  0.177
  2  0.260  0.000  0.007  0.000  0.000  0.000  0.000  0.000  0.000  0.267
  3  0.260  0.000  0.007  0.000  0.000  0.000  0.000  0.000  0.000  0.267
tot  0.697  0.000  0.014  0.000  0.000  0.000  0.000  0.000  0.000  0.712
 
band   2 # energy  -16.77892065 # occ.  2.00000000
 
ion      s     py     pz     px    dxy    dyz    dz2    dxz    dx2    tot
  1  0.000  0.000  0.067  0.000  0.000  0.000  0.000  0.000  0.000  0.067
  2  0.314  0.000  0.001  0.000  0.000  0.000  0.000  0.000  0.000  0.315
  3  0.314  0.000  0.001  0.000  0.000  0.000  0.000  0.000  0.000  0.315
tot  0.629  0.000  0.068  0.000  0.000  0.000  0.000  0.000  0.000  0.697
 
band   3 # energy   -9.92927585 # occ.  2.00000000
 
ion      s     py     pz     px    dxy    dyz    dz2    dxz    dx2    tot
  1  0.153  0.000  0.000  0.000  0.000  0.000  0.197  0.000  0.000  0.350
  2  0.030  0.000  0.115  0.000  0.000  0.000  0.000  0.000  0.000  0.145
  3  0.030  0.000  0.115  0.000  0.000  0.000  0.000  0.000  0.000  0.145
tot  0.213  0.000  0.230  0.000  0.000  0.000  0.197  0.000  0.000  0.640
 
band   4 # energy   -6.55208300 # occ.  2.00000000
 
ion      s     py     pz     px    dxy    dyz    dz2    dxz    dx2    tot
  1  0.001  0.006  0.000  0.002  0.436  0.000  0.000  0.000  0.145  0.591
  2  0.000  0.091  0.000  0.031  0.000  0.000  0.000  0.000  0.000  0.122
  3  0.000  0.091  0.000  0.031  0.000  0.000  0.000  0.000  0.000  0.122
tot  0.002  0.189  0.000  0.063  0.436  0.000  0.000  0.000  0.145  0.836
 
band   5 # energy   -6.51431183 # occ.  2.00000000
 
ion      s     py     pz     px    dxy    dyz    dz2    dxz    dx2    tot
  1  0.000  0.002  0.000  0.006  0.146  0.000  0.000  0.000  0.438  0.593
  2  0.000  0.031  0.000  0.092  0.000  0.000  0.000  0.000  0.000  0.123
  3  0.000  0.031  0.000  0.092  0.000  0.000  0.000  0.000  0.000  0.123
tot  0.000  0.063  0.000  0.190  0.146  0.000  0.000  0.000  0.438  0.838
 
band   6 # energy   -5.82448313 # occ.  2.00000000
 
ion      s     py     pz     px    dxy    dyz    dz2    dxz    dx2    tot
  1  0.000  0.000  0.051  0.000  0.000  0.045  0.000  0.015  0.000  0.111
  2  0.000  0.011  0.220  0.004  0.000  0.000  0.000  0.000  0.000  0.234
  3  0.000  0.011  0.220  0.004  0.000  0.000  0.000  0.000  0.000  0.234